LAMMPS data file via write_data, version 16 Mar 2018, timestep = 1000000

500 atoms
1 atom types

0.0000000000000000e+00 8.3215900000000005e+00 xlo xhi
0.0000000000000000e+00 8.3215900000000005e+00 ylo yhi
0.0000000000000000e+00 8.3215900000000005e+00 zlo zhi

Masses

1 1

Atoms # atomic

19 1 1.7902954562001390e+00 8.8379498454877148e-01 5.2472002286071129e-01 0 0 1
291 1 8.0273163339149789e-01 1.2950029795917748e+00 1.1796946749021402e+00 1 0 0
165 1 1.6289443836415600e+00 3.1319886378321377e-01 1.5162961405505522e+00 0 1 1
169 1 1.7778249322158404e+00 1.7437046691819715e+00 1.1592177111217767e+00 -1 0 -1
407 1 7.8854439293279466e-01 2.9545483323338212e-01 6.7974831014397907e-01 1 0 0
123 1 1.8063117204842802e+00 1.9654923195273801e+00 1.9244021411707468e-01 1 0 1
47 1 2.7191603909389288e+00 2.7294265680915135e+00 3.0194710440601433e+00 -1 -1 0
233 1 3.5618444209258131e+00 1.4943461278346846e+00 1.4197170141571682e+00 0 1 1
359 1 3.5249331161135320e+00 1.1230979666064922e-01 1.4494258604328361e+00 0 1 1
235 1 3.5540841433855870e+00 6.6751805899677275e-01 5.2674448517332706e-01 0 1 0
102 1 2.8277421197333816e+00 1.3704140814787240e+00 2.6116661352456838e-01 0 0 1
395 1 3.7564456422736576e+00 1.8594822510360618e+00 4.3655405423905125e-01 1 0 0
482 1 2.5810792390083068e+00 1.0805550668623196e+00 1.6536656747962111e+00 1 1 0
133 1 2.5867421831412112e+00 2.5054231920910458e-01 9.3582276458416103e-01 0 0 1
475 1 8.0117530062886289e-01 2.1339548871130827e+00 1.8780166144282830e+00 1 -1 1
434 1 1.3032065806517421e+00 3.7138575318210370e+00 7.3957163156104122e-01 1 0 0
16 1 9.2354100362391034e-01 2.1916962023729956e+00 6.9663109434905368e-01 0 0 1
462 1 1.3515260639624194e+00 2.9343639261441212e+00 1.5499410405267662e+00 0 0 0
330 1 3.5587064915023980e-01 3.3213236472907699e+00 2.9012999954907875e-01 1 -1 1
295 1 4.0741031139028255e-01 4.1395931079118160e+00 1.1918856468083165e+00 1 1 1
497 1 2.4594569584557622e+00 3.2784507304833119e+00 1.7848057115837062e+00 0 1 0
57 1 4.0816996663869070e+00 3.8857952532944324e+00 6.2264670603279171e-01 -1 0 0
313 1 3.0055295981258325e+00 4.1521097476127418e+00 1.4095958637937351e+00 0 0 0
77 1 3.5667614706038631e+00 2.9002824378367222e+00 7.9748503185431641e-01 0 0 1
90 1 2.1745662233935446e+00 2.9654592685468564e+00 8.4628489227418646e-01 0 0 0
456 1 2.5216347844915621e+00 2.2383702973821040e+00 1.5380658136804497e+00 1 0 0
53 1 2.8106608202350012e+00 2.5176497406834866e+00 1.7492002657210556e-01 0 1 1
282 1 2.3946406062590562e+00 2.5452779434119028e+00 3.9762712388631374e+00 0 0 1
336 1 3.3533477848815502e-01 7.7685174573292726e-01 1.7898317890893991e+00 1 0 -1
75 1 2.0025428335438122e+00 7.8539611779091634e-01 4.0623666822652309e+00 1 0 0
273 1 1.6831675119944691e+00 1.5417887981835294e+00 2.2088286801816261e+00 0 0 0
37 1 6.7865537012553656e-01 1.4400073464122136e+00 2.9130682106069381e+00 1 -1 0
201 1 2.1279249891391674e-01 3.7204567627296675e-01 2.8966397191107323e+00 0 1 1
236 1 1.0306263777165805e+00 6.6402403671821386e-01 3.6251496222939701e+00 1 1 0
272 1 1.1502649929602795e+00 5.9138843281812903e-01 2.3470517206773169e+00 0 0 -1
248 1 1.8127080377075375e+00 1.6213765890236833e+00 3.3410640874079234e+00 1 0 0
342 1 2.4657752882037459e-01 2.7979535456293019e+00 1.2277978195121031e+00 1 0 1
185 1 2.5883355785686675e+00 1.8449574716155082e+00 2.5792133608092600e+00 0 1 -1
245 1 3.0474165458239666e+00 4.7913283932547585e-01 3.4750044460984735e+00 0 1 1
307 1 3.3109292274701203e+00 9.9473743108351542e-01 2.5081079935989097e+00 0 0 0
303 1 2.8533641978399058e+00 1.6048476126383067e+00 3.7061818626873086e+00 1 1 -1
209 1 2.2770562287403777e+00 7.3806242212060713e-01 2.5480038912558132e+00 0 0 0
321 1 3.7383942610581795e+00 1.9735833531770486e+00 2.8051188990539111e+00 0 0 0
20 1 3.9474365751786427e+00 1.3421548661361489e+00 3.5862371066137415e+00 -1 1 0
94 1 1.6514083840777005e+00 2.4582044890335002e+00 2.7663638775705985e+00 0 0 0
86 1 8.3263178881272226e-01 3.1149624682909964e+00 2.5565029672177575e+00 0 0 1
136 1 3.3141996378152645e+00 2.6483434750920218e+00 2.0570035726150473e+00 -1 0 0
454 1 6.2320402155132715e-01 2.3348214037711776e+00 3.4302336459845311e+00 1 1 0
93 1 1.5656706564279814e+00 3.4176052436831221e+00 3.3421438201370233e+00 0 0 1
469 1 3.0821131565604226e-01 3.3395883512489681e+00 3.4724495290643782e+00 0 0 0
44 1 4.0077117420780812e+00 3.5860134161187283e+00 1.7507760291541272e+00 0 0 0
105 1 7.9277209243863556e-02 3.8260193033873020e+00 2.1261343244760722e+00 1 0 0
6 1 7.4065641589342340e-02 5.6461865301809089e-01 4.1359414951183222e+00 0 0 0
72 1 1.4474335440501558e+00 3.8602156151967129e+00 2.1764152212699450e+00 0 0 0
177 1 4.0863428265568267e+00 4.0082972560683077e+00 3.4970363117198815e+00 -1 0 0
45 1 3.4811395295744725e+00 3.8392267544978682e+00 2.5765298531946188e+00 0 -1 0
98 1 2.3769596121058134e+00 3.7579555270795346e+00 2.7118651691205176e+00 0 0 0
144 1 9.2191267070672001e-01 1.2108631184511471e+00 5.2783374169586506e-02 0 0 0
221 1 3.5692426760508735e+00 2.4130984391543984e+00 3.7146165548635888e+00 0 1 0
345 1 3.1594709156215997e+00 3.4649169887939477e+00 3.5079896675366515e+00 1 0 0
356 1 2.9334362220710384e+00 3.8292799198158449e+00 4.1916022752948301e-01 0 0 1
140 1 1.3916397320742748e+00 2.6488263797537370e+00 4.1064512657721099e+00 0 0 0
81 1 9.8702514603353153e-01 1.6326031022295853e+00 4.0545918919668651e+00 0 0 0
364 1 8.6435501469277987e-01 4.0951129234378305e+00 2.9595286337527433e+00 0 1 0
298 1 8.5898032715591055e-01 7.3825543068565302e-01 4.9542639194280209e+00 1 0 0
179 1 2.9544973408571534e-01 1.0191627103761027e+00 5.8727140580587029e+00 0 0 0
50 1 7.5746408516272534e-01 1.8185514673660965e+00 5.2382852006261711e+00 0 -1 -1
360 1 1.7516821609049975e+00 1.7367903261522417e+00 4.7445989488314462e+00 0 0 0
470 1 3.6751331505307423e+00 3.3682239518673609e+00 8.0697924027812054e+00 -1 1 0
317 1 3.9067842793723195e+00 8.9997240819726168e-02 4.3922442259633145e+00 0 1 0
254 1 1.4150242709336498e+00 1.1664277541155255e+00 5.7813516913867362e+00 1 0 0
38 1 3.5189099256784790e+00 2.4493094875026324e+00 7.6386744550557344e+00 0 0 0
252 1 2.2187148941704473e+00 5.3830417878550874e-01 5.2398229938424938e+00 0 1 0
95 1 3.0170217488593134e+00 7.7501272722223968e-01 6.0423975972717354e+00 0 0 0
24 1 3.6742927738459086e+00 1.5182309364197326e+00 5.6749034321569862e+00 0 -1 -1
366 1 3.1242168616975623e+00 9.0539270398207095e-01 4.7928849092824413e+00 0 1 0
29 1 2.4252783397948696e+00 1.5595953099378548e+00 5.6488255535191820e+00 0 1 0
439 1 3.8002775599795662e+00 3.3952134869707856e-01 5.3860679995668441e+00 0 0 1
385 1 7.7758134756408257e-03 9.9569447164524660e-01 7.1171984388987140e+00 1 1 0
302 1 1.5676700186200903e+00 2.2704291570232322e+00 5.8459161678186868e+00 0 0 -1
223 1 1.1959530388390920e+00 3.0507502414294896e+00 5.2012263733859454e+00 0 0 0
3 1 3.0427251892721491e-01 3.9599602245293766e+00 4.7818355867967002e+00 0 -1 0
112 1 4.3769719815295860e-01 3.7149504790807653e+00 6.2330911863691236e+00 0 0 1
493 1 1.4898316296468705e-01 2.7950195492927929e+00 4.5127415759695957e+00 1 0 1
227 1 1.7588325756701289e+00 3.4474836799949919e+00 5.9983628224254018e+00 0 0 0
448 1 2.2869585053879812e-01 2.9017732598493948e+00 5.5155109069579931e+00 1 1 1
376 1 4.0279173676681186e+00 1.9998979987029077e+00 6.4393147855809270e+00 -1 0 0
393 1 2.0328343087657346e+00 3.5967746018230580e+00 4.9012834114241928e+00 1 1 -1
491 1 2.2497839643699065e+00 2.2309590152245242e+00 7.4942862089545335e+00 1 0 0
202 1 2.9769823737855363e+00 1.9579681396374413e+00 4.7171904250578294e+00 0 1 0
211 1 2.8678684236482033e+00 3.7408775105115435e+00 5.6409417307120844e+00 0 0 0
145 1 2.2896582675815642e+00 2.6063141610695006e+00 5.1433356234958909e+00 0 0 0
361 1 3.4697369096613815e+00 2.5864330989054864e+00 5.7183339589265714e+00 0 0 0
31 1 3.0712148118112546e+00 3.1409979236556866e+00 4.6176015740878942e+00 0 0 0
153 1 4.0032461848016867e+00 3.7475307893098773e+00 5.2216060727402738e+00 0 0 0
352 1 2.4678472566825556e+00 2.6069229582059372e-01 8.2197973228792325e+00 1 1 0
247 1 2.1254560506850826e+00 4.0294476280278335e+00 8.1642462921156991e+00 0 0 0
399 1 9.2503692529378034e-01 1.7749894778964896e+00 6.5091429638094596e+00 1 1 -1
251 1 1.1374422935150896e+00 9.0044139746664142e-01 7.3542251566080301e+00 0 1 -1
68 1 2.0818698368264998e+00 1.1471712016240709e+00 7.8103463908496007e+00 0 1 0
171 1 4.0251304347285416e-01 2.5989015146829636e-01 7.9797073771840914e+00 0 1 -1
384 1 4.9095627163576117e-01 2.3617313316106905e-01 6.5609452462485454e+00 1 0 1
260 1 1.3876674854454132e+00 1.8076257671507842e-01 8.1977147961392500e+00 0 1 0
80 1 1.1851107560635816e+00 1.8797998237540348e+00 7.5879743558565993e+00 0 0 0
180 1 1.8460662131978141e+00 2.3563014477050663e-02 7.3155645617565170e+00 0 1 -1
230 1 1.1004676068437060e+00 3.7234044431658253e+00 4.2398595912420278e+00 0 0 0
219 1 2.4475269527333086e+00 3.8164894558265119e+00 6.6146156554755615e+00 0 0 0
13 1 1.9400043937654652e+00 1.5761601371002238e+00 6.7508050863924245e+00 -1 0 -1
496 1 3.3320339089839450e+00 1.4852480611900094e+00 7.6894894204300916e+00 1 1 0
189 1 3.3661776473630582e+00 4.1581138717013726e+00 4.3360819051993662e+00 0 0 0
323 1 2.6891174609149799e+00 7.2372861590501669e-01 7.1130603742842551e+00 1 1 0
312 1 3.4585776644106496e+00 5.0705205594237068e-01 7.8475618606263478e+00 0 0 -1
415 1 2.9761838882936882e+00 1.7037800029541332e+00 6.7217593875149602e+00 1 0 -1
138 1 4.0212425116366086e+00 7.7892912587646124e-01 6.7596079459797407e+00 0 1 -1
66 1 8.4206971717742984e-01 2.6276400062079137e+00 8.0877313338939629e+00 0 0 1
222 1 1.0590616029242885e+00 3.8482714063168033e+00 7.8437414138230759e+00 0 1 -1
348 1 8.0972884482610841e-01 2.8278752227431170e+00 6.4820507050615133e+00 0 0 0
116 1 1.7813642235492499e-01 3.5155933151166869e+00 7.3158143727128309e+00 1 -1 0
218 1 1.6135104649824943e+00 3.2425198134759334e+00 7.1278942310286633e+00 -1 1 0
299 1 3.1004107085927879e-01 2.2824608367881982e+00 7.1601309521115368e+00 1 0 0
213 1 1.6957214413944492e+00 2.9580660700535923e+00 8.2569963020811716e+00 0 2 -1
200 1 1.9489451181820685e+00 2.0224830688493557e-02 6.3166411600415824e+00 -1 1 1
191 1 3.5176937894389275e+00 3.0258504067350396e+00 6.6571376104105351e+00 -1 1 0
498 1 2.3679831393219435e+00 2.6818852849383150e+00 6.6212716499003630e+00 0 0 -1
383 1 2.6534928067760322e+00 3.2210637402052069e+00 7.4140292464463098e+00 1 0 0
394 1 3.6186156593421401e+00 3.9430121274764316e+00 6.8915591299524150e+00 0 1 -1
97 1 4.1426936052736734e+00 3.2154743243275217e+00 4.2930122503682790e+00 0 0 0
297 1 1.8998178388484277e-02 1.6328570047303992e+00 7.8864758738170506e+00 1 1 -1
22 1 7.2257280209737129e-01 5.5259786257009598e+00 8.9492329301098539e-01 0 0 -1
397 1 1.5290439148807422e-01 4.3529443530414751e+00 1.5595680300190748e-01 1 0 1
413 1 1.8223076227913173e+00 5.6300083245781751e+00 7.7107781625166838e-01 1 1 0
444 1 1.2713799547845830e+00 5.8021124455236617e+00 1.6709975935328574e+00 1 -1 -1
286 1 3.8640248000861188e-01 6.0123395932093091e+00 2.5941949238625313e-02 0 -1 1
160 1 3.2929520129316714e+00 7.8748668788695033e+00 3.8566072448911966e+00 0 0 0
388 1 1.9071992386657981e+00 4.2718055676914553e+00 1.1945359558019519e+00 0 0 1
76 1 1.3282429920225545e+00 4.6126923794937538e+00 3.1292622755547617e-01 1 -1 0
139 1 3.7163375564389214e+00 8.2220595000476759e+00 2.8914346951298135e+00 0 0 0
487 1 2.6687020598442270e+00 5.5441832995195961e+00 1.3488825348165532e+00 1 1 0
243 1 3.2587386301903254e+00 4.9051664745244725e+00 7.9767385181679940e-01 0 0 0
443 1 3.1050801029117832e+00 5.9594046790864379e+00 5.4516685729482306e-01 0 1 0
478 1 3.3883132358066717e+00 6.8339345523337292e+00 3.9898038816943746e+00 0 0 0
197 1 2.3285342268965623e+00 5.0271295183739397e+00 1.4678484324110641e-01 1 0 0
52 1 1.4743736636877787e+00 6.7290773439562219e+00 3.2370116498969559e-01 0 -1 0
380 1 6.8249822635974711e-01 7.5919139478109994e+00 1.1929756781776406e+00 0 1 0
73 1 1.5247409201738189e+00 6.9337300194745088e+00 1.4360861869621484e+00 -1 -1 0
412 1 1.7553371073649813e+00 7.8901449650676785e+00 7.4345556653716571e-01 1 0 0
464 1 5.3128332484353413e-01 8.0651752430440791e+00 2.1012188639536320e+00 0 -1 0
479 1 1.5783151315694879e+00 7.7998313625174580e+00 2.1056935433795028e+00 1 0 0
377 1 6.5571718542376278e-01 6.8669959502324920e+00 1.9999767993614332e+00 1 0 0
369 1 3.5898883616090721e-01 6.5692884410569654e+00 1.0515144128216671e+00 0 0 1
357 1 3.4998436715237209e+00 6.9117049947825011e+00 5.1866030488078196e-01 1 -1 0
284 1 2.6545853657968022e+00 7.5344903885314265e+00 1.3115617954775090e+00 0 0 1
301 1 3.2298048325434285e+00 6.3974219681086248e+00 1.4802887351019449e+00 1 -1 0
207 1 2.4838486067712879e+00 6.7009580367188768e+00 8.2986686354942130e-01 0 -1 1
125 1 3.7835073732868034e+00 7.4833656886160949e+00 1.4159015203815462e+00 0 0 0
62 1 3.4480867879046881e+00 8.0292397777922702e+00 4.8053654202312468e-01 0 -1 1
2 1 2.5600600907905151e+00 7.5579596223726906e+00 1.5581751152173254e-01 0 1 0
79 1 2.2121492834496932e+00 8.1273368316485701e+00 4.0149977213737076e+00 0 0 1
234 1 2.0124964270095074e+00 4.9751132688079629e+00 2.0450606989996349e+00 0 1 1
35 1 2.6366960090721645e+00 8.2179225371345908e+00 2.0940093702380884e+00 0 -1 0
488 1 8.6243849616129609e-01 4.7101805350344490e+00 2.1035672301678683e+00 0 0 0
368 1 1.1392993121470223e+00 5.1525095041492399e+00 3.6813373123218973e+00 -1 0 -1
405 1 1.3666404773231835e+00 5.4809132220964170e+00 2.6009169344513152e+00 1 0 0
261 1 1.8851707959973807e+00 4.5733927473912273e+00 3.0154656481362090e+00 0 0 0
340 1 1.5648940514540155e-01 5.5202780573879311e+00 4.0341201799978839e+00 1 -1 0
490 1 2.9331657848939380e-01 5.6674467000917783e+00 2.4386599638582886e+00 1 0 1
425 1 2.0594347535195578e+00 6.2710288272466190e+00 2.3010294253239527e+00 1 0 0
104 1 2.9042758122130943e+00 4.7227470684719846e+00 2.4227876818148837e+00 0 0 0
172 1 2.1910458323344373e+00 5.4567956592197264e+00 3.1185532869599855e+00 1 0 0
339 1 2.9355815506593919e+00 5.7812624030745328e+00 2.4041579374671267e+00 1 -1 0
242 1 3.7280893179711878e+00 4.9854474914502545e+00 3.9420613098250255e+00 0 0 0
338 1 2.0101352549684690e+00 4.4077563793936108e+00 4.0419291456904070e+00 0 0 0
132 1 2.8384302930876837e+00 4.5194174256132378e+00 3.4178418177977110e+00 0 0 0
316 1 3.1948956390262704e+00 5.8308215380669850e+00 3.4394802463021557e+00 1 -1 0
404 1 6.0826776657918546e-01 6.9096066462370738e+00 3.7555477852495347e+00 1 0 -1
88 1 3.8593276890435888e+00 4.6819600311278995e+00 1.6976420002432642e+00 -1 -1 0
70 1 1.9822450891875165e+00 6.5453411189942186e+00 3.9031688942467513e+00 0 0 0
449 1 8.8747135250828080e-01 6.4337259350011760e+00 2.8621008174986051e+00 1 0 0
33 1 5.7679483038358237e-01 7.4983029678840802e+00 2.9484619187466272e+00 0 -1 1
21 1 1.6202072290286302e+00 7.0893566226917573e+00 3.0764430376396268e+00 0 0 1
84 1 5.8313836037689493e-01 7.9133380170858638e+00 3.9940568015879427e+00 0 -1 0
420 1 1.4821919410724962e+00 8.2541677602343011e+00 3.0633046035676186e+00 1 0 0
418 1 3.6843446190802069e+00 6.4550464701678711e+00 2.8074137188350186e+00 0 -1 0
168 1 3.2573838489950653e+00 7.2753458655152947e+00 2.2924077337971127e+00 0 0 -1
265 1 2.6814338881786859e+00 6.6231855084105060e+00 3.1337859179966614e+00 0 -1 1
477 1 3.7860674870992836e+00 5.0661266803130696e+00 2.7970920311954401e+00 0 0 0
7 1 2.4635054132986118e+00 7.6626884706395906e+00 2.9263215507501439e+00 0 -1 0
163 1 1.2351883928415473e-01 4.3837258583221406e+00 3.7987894840184984e+00 0 1 -1
157 1 7.4009124091935363e-01 7.6088863771733628e+00 2.7942853221998160e-02 1 -1 0
208 1 4.8141634585426411e-02 5.1428342015010609e+00 1.6203977966950682e+00 0 -1 0
365 1 3.9476114683255381e+00 5.8034852641365591e+00 1.9566305787051701e+00 0 -1 1
173 1 1.7755667058242808e+00 5.4756823374464387e+00 5.1490091805138531e+00 0 0 -1
238 1 4.3064502641382701e-01 5.4340659865360728e+00 5.1211671013445486e+00 0 0 0
468 1 1.0361103144861910e+00 4.7654856478093341e+00 4.8308813467384670e+00 1 -1 0
484 1 1.2297387167240157e+00 5.9701138812013088e+00 4.3860872111962230e+00 1 0 0
118 1 1.0510057842538625e+00 5.2476098252103824e+00 6.0785727315713425e+00 0 -1 -1
499 1 2.2471858174024817e+00 4.6806794529731137e+00 5.9783133524779917e+00 0 0 0
341 1 1.9189782961705473e+00 5.4989268080916558e+00 6.4507020344568167e+00 1 0 0
256 1 1.4280116687681554e-01 5.8442673232947975e+00 6.1811413874057513e+00 0 0 0
181 1 3.2138390049934733e+00 7.7809784254739602e+00 7.5772279727999710e+00 0 0 0
126 1 2.4864208904888172e+00 4.6211191470108215e+00 4.9193763742996417e+00 0 0 0
130 1 3.5714251262995989e+00 4.8513251794478940e+00 5.2698925680614304e+00 0 0 0
382 1 2.7308288265705301e+00 5.6406297755696642e+00 5.5571308350135356e+00 0 0 0
459 1 3.4259807468343868e+00 5.6760228808832833e+00 4.7100459162359014e+00 0 -1 0
262 1 2.3016649047233186e+00 5.6256325929280946e+00 4.2936317038018101e+00 0 0 0
306 1 1.4008781996719373e+00 8.2110085278986453e+00 4.7894281933246825e+00 1 0 0
325 1 3.0795363061588312e+00 6.7601812084534263e+00 7.8877910294917797e+00 1 -1 -1
414 1 3.3357942427939915e+00 8.1447369550274669e+00 6.4176225703149434e+00 0 0 0
15 1 1.8000039111665587e+00 6.5070163508705932e+00 5.0026948489284200e+00 0 0 -1
217 1 7.7371822157357595e-01 7.1387466555417696e+00 5.0800243077654734e+00 0 0 0
210 1 1.0098692825411315e+00 6.4260783166911386e+00 5.8003296638777977e+00 0 0 0
452 1 1.7181953157996371e-01 7.6880253032440216e+00 6.1266218156607408e+00 0 -1 0
149 1 1.9510249647520395e+00 7.5779144213806786e+00 5.3012238095236963e+00 0 -1 0
331 1 2.5924178574696827e-01 4.6486848970941823e+00 5.6884668999424317e+00 0 0 1
315 1 1.6604377262889731e+00 7.3336506423759147e+00 7.7304030618238846e+00 1 -1 -1
423 1 4.1364225371523720e+00 7.1806613646027131e+00 7.4793074913507800e+00 1 0 -1
435 1 2.9364728591338385e+00 8.1258005683912184e+00 4.9359695352542055e+00 0 0 0
69 1 3.3760628663421057e+00 7.0195051193362108e+00 6.5553703886321690e+00 1 -1 0
184 1 2.7805441644728286e+00 6.4241186454611983e+00 4.9042298514039606e+00 1 0 0
196 1 2.1908731575498335e+00 6.6886322367686262e+00 5.9641779883896602e+00 0 0 0
318 1 3.5238489409777554e+00 6.4205056862778562e+00 5.7120454877586102e+00 1 -1 -1
271 1 3.7300989128326609e+00 7.5807144756346254e+00 5.2112811373217491e+00 0 -1 -1
398 1 2.8739241639796949e+00 7.3848577559872748e+00 5.6687916095099053e+00 1 0 -1
111 1 2.3849227046277561e+00 6.1035298922951871e+00 7.8516065290654469e+00 1 0 -1
353 1 2.3948363243363202e+00 7.4610450610522898e+00 6.6778218393676259e+00 0 0 0
183 1 2.6273360972790170e+00 7.3078832205274002e+00 4.4280832518687809e+00 1 0 0
89 1 3.9631583418907285e-01 8.1192642821683538e+00 4.9232358365989830e+00 0 -1 0
386 1 1.3444862035468588e+00 5.8120791873459217e+00 8.0000266414066505e+00 0 0 -1
27 1 1.1062174658078812e+00 8.1717022294462076e+00 5.7784571132732960e+00 1 -1 0
152 1 9.9011045012326848e-01 5.9403458801717308e+00 6.9705776137412565e+00 0 1 0
370 1 3.3485064395962072e-01 4.8972929086642667e+00 6.8004967439357245e+00 0 -1 0
114 1 8.8484370324427186e-01 4.9101153986355124e+00 7.6844243304388655e+00 1 0 0
122 1 2.0014622572024585e+00 4.9016934152051919e+00 7.4634826879626344e+00 0 0 0
427 1 1.3070643883915596e+00 4.2425762441417207e+00 6.7857266274079198e+00 0 0 -1
49 1 3.6478543377022503e+00 5.4599853428880367e+00 6.2835991918727796e+00 0 0 0
131 1 2.7744433063773593e+00 5.9791882702727301e+00 6.7207025254582886e+00 0 0 0
215 1 3.0723942699674955e+00 4.2870190852736751e+00 7.6840499513330833e+00 0 -1 0
11 1 3.7074467761531031e+00 6.0661623418432882e+00 7.1582634558468747e+00 1 0 0
58 1 2.8868209160718981e+00 4.8435283917971850e+00 6.7575398505932229e+00 0 -1 -1
63 1 3.1399126000144038e+00 5.4389725479446378e+00 7.8141488029786981e+00 0 -1 0
142 1 1.4783643917021814e+00 7.3814114445469183e+00 4.1609576594723912e+00 1 -1 0
346 1 3.8759429752592274e+00 4.6711636395310228e+00 8.2458744332505010e+00 0 0 0
246 1 1.2039598474173623e+00 7.2837825843157509e+00 6.4213989643393630e+00 0 0 1
472 1 4.0977491353116791e-01 6.7023192462141310e+00 6.6110782063941125e+00 0 0 0
28 1 1.8330710986750911e+00 6.5469162574545061e+00 7.0472805317254918e+00 0 0 -1
30 1 6.0895360227224637e-01 7.8349127175244693e+00 7.2345778056503036e+00 0 -1 -1
344 1 8.6089502057453315e-01 6.7958283536503421e+00 7.5696243847617888e+00 0 -1 0
391 1 4.0010226090342842e+00 4.4632247314550950e+00 6.0802646178208910e+00 1 0 0
241 1 3.9379239467947489e+00 4.8899124953517754e+00 7.1771842552886032e+00 -1 0 -1
296 1 1.4548237689920523e-01 6.3661419517318345e+00 4.6277399759930198e+00 1 -1 -1
41 1 1.2563857864605585e+00 4.2394609427162573e+00 5.6335224169718785e+00 0 0 0
269 1 5.2877141649167996e+00 1.8455527501481244e+00 8.7540504834978206e-01 1 -1 0
300 1 5.3449315465942746e+00 7.4253907503762584e-01 2.4836982789142463e+00 0 0 0
264 1 4.8766091597258070e+00 9.7860687064589313e-01 1.3807626697349367e+00 -1 1 0
55 1 6.7307486020979512e+00 2.8394447547258301e+00 3.4243751417343793e+00 0 -1 0
8 1 5.3676232786516138e+00 4.8702042851505439e-01 4.2683938360066115e-01 0 0 0
39 1 4.4779535029368667e+00 1.0940819025620085e+00 2.9850239845916515e-01 0 0 0
326 1 4.4565694782668803e+00 1.1285472229921273e-01 8.5026149758778968e-01 1 0 0
421 1 6.2970514291082003e+00 1.8999687067663278e+00 6.2717532158850819e-01 -1 1 0
107 1 5.9106064270714036e+00 1.0354181881937641e+00 1.2770375602010529e+00 0 0 0
250 1 5.4629223885841958e+00 2.0059017025992230e+00 1.9889637556693178e+00 -1 1 0
458 1 6.3627790430415949e+00 7.6104606352454107e-01 2.5604464781930031e-01 0 1 1
34 1 7.0364201606346768e+00 7.3206921669306557e-01 1.0300774531666421e+00 0 0 0
492 1 8.1543367849821085e+00 1.8258352213441680e+00 1.5896044547399102e+00 0 0 0
78 1 7.5294254513688470e+00 3.2410417258737914e+00 2.4545922793954191e+00 -1 0 1
372 1 7.2792272475544584e+00 1.5332236909669390e+00 3.4930646512424218e-01 0 0 1
268 1 8.1468634756849916e+00 1.1370351444950340e+00 8.3008776102950932e-01 -1 0 0
156 1 6.9121711171604581e+00 1.5391172039477445e+00 1.9284308496878635e+00 0 0 0
115 1 7.6230201325715035e+00 6.2589495227424430e-01 1.9866800761981736e+00 -1 0 0
187 1 6.2685356692906851e+00 3.5698573872408654e+00 2.8052533151325623e+00 0 1 0
483 1 4.2647443814433990e+00 3.3253282877172885e-01 2.0668331119720147e+00 0 1 0
96 1 4.9543626983904554e+00 2.9473211335963145e+00 1.1549998696530723e+00 -1 0 0
154 1 6.2284275222426793e+00 2.5623730010809953e+00 1.5459724099452605e+00 0 1 0
36 1 4.9615478701239901e+00 4.0358193304872811e+00 1.2477198224427806e+00 0 0 0
258 1 4.5958301219173334e+00 3.1483807849195231e+00 1.7388900179654751e-01 0 0 0
446 1 8.0309010224224675e+00 2.2848206177261643e+00 4.9394721322966312e-01 0 1 1
263 1 5.5473139502611177e+00 2.6234038185734145e+00 1.8019318523523720e-01 -1 0 1
373 1 5.9551026589419145e+00 3.5010385961586459e+00 7.9797385528782427e-01 0 1 1
194 1 5.1284417871332302e+00 3.9998692634735766e+00 1.7466473263049390e-01 -1 0 0
463 1 8.2538960079966408e+00 2.5258325236610930e+00 2.3890709919687705e+00 0 0 1
134 1 7.2042753084380111e+00 3.0811496419111606e+00 3.0513796933474258e-01 0 1 0
85 1 7.7034919432120939e+00 3.9156178183455079e+00 6.5442102767388777e-01 -1 0 1
314 1 7.3994351217639567e+00 2.4267352181584849e+00 1.1907189391926936e+00 0 0 0
229 1 7.0993836727355335e+00 3.5163828699621256e+00 1.5031120411595649e+00 0 0 1
426 1 6.5602226295379333e+00 3.9668353282745858e+00 3.7626981910311970e+00 0 1 0
226 1 5.1416737955266836e+00 8.3896174581164273e-01 3.8594428991544163e+00 0 1 0
32 1 5.8928146876563430e+00 1.5943581416680068e+00 2.9220107275676037e+00 0 0 0
83 1 5.6997567182020497e+00 8.9152135988535136e-02 3.2885340846013853e+00 -1 1 1
358 1 4.6282635645339099e+00 3.5185036714818624e-01 3.0432751391248920e+00 0 0 1
343 1 4.8020365992722338e+00 1.8008772187889275e+00 3.2365629329037717e+00 0 0 1
170 1 4.6274790644334978e+00 1.4948471402885777e+00 2.3056653411546262e+00 0 0 0
363 1 6.9190636716658034e+00 2.4386795520746296e+00 2.4476311048344788e+00 0 -1 1
12 1 6.4094110444582926e+00 7.8474296190378601e-01 3.5673995821141049e+00 -2 0 0
350 1 6.3981056206787716e+00 7.0688413873378819e-01 2.3231432337341480e+00 0 0 1
59 1 7.9442440945498660e+00 1.4434362561137395e+00 2.4885057512015778e+00 0 0 0
476 1 7.4756371669268002e+00 4.3336398835457063e-01 3.1101673559383167e+00 0 0 0
206 1 7.0109580008088050e+00 1.5470788268328777e+00 2.9652769725373491e+00 0 1 0
10 1 8.0441567409779928e+00 1.4044663877902224e+00 3.4851678331535139e+00 -1 0 0
190 1 5.5623191185187082e+00 1.9299460982787611e+00 3.9807118149797107e+00 -1 1 0
239 1 6.3424939319308553e+00 4.0713295099627445e+00 1.8681832831213570e+00 0 0 1
220 1 5.5859934048112043e+00 2.6541133881792880e+00 3.0590090731629322e+00 0 0 0
494 1 4.8046465643425886e+00 2.7871609579401655e+00 3.7355718582853834e+00 0 0 0
329 1 5.2039326740782137e+00 3.3272080009864062e+00 2.1862990737790433e+00 1 0 1
288 1 5.0331174947860804e+00 3.6453774960929959e+00 3.2473364599977992e+00 0 0 0
164 1 7.7440814417107111e+00 2.6400923357434931e+00 3.7047614781360099e+00 -1 1 -1
267 1 7.5904774466939360e+00 3.6535077170298096e+00 3.5349826445450803e+00 0 0 0
175 1 4.2875242522270600e+00 2.2811831344591886e+00 1.6863756955586338e+00 0 0 0
460 1 5.8309843541910062e+00 3.2658577268324027e+00 4.1060070492851999e+00 0 0 0
327 1 6.5902569623672971e+00 4.1395346972636018e+00 4.6774968553493507e-01 0 0 1
186 1 4.1759684455472428e+00 2.9424974320838113e+00 2.9954426011271722e+00 0 1 0
347 1 5.4561583039530266e+00 8.1771494881378926e-01 5.0957393334608483e+00 1 0 0
158 1 5.5516594065220781e+00 1.8233183420317640e+00 5.4570489972587355e+00 0 1 -1
64 1 6.0811285869066758e+00 1.2567811945851066e+00 6.0855073668492246e+00 -1 0 0
290 1 4.6636072252648235e+00 8.2639930684389185e-01 5.8540555499961906e+00 0 0 0
162 1 4.5436886982469229e+00 1.9776767833169335e+00 5.4907417469904116e+00 0 1 -1
255 1 5.0064914952256991e+00 1.5540608196495933e+00 6.3903174451982947e+00 0 1 0
109 1 5.8946234584765964e+00 1.5482432011050393e-01 4.3384272452766472e+00 0 1 0
280 1 5.9012625799483196e+00 1.8398237713727714e-01 5.7983271147702711e+00 0 0 -1
381 1 4.4240411595760465e+00 9.5699100850440300e-01 4.8247500318430756e+00 0 1 0
319 1 6.5067230773759555e+00 1.1513569870410905e+00 5.0769504220114667e+00 1 -1 0
428 1 7.1921914100989222e+00 1.6736351133601781e+00 6.0787911550137910e+00 0 1 -1
442 1 7.7482553206542395e+00 9.1252700073075921e-01 5.0898319255500395e+00 0 1 0
410 1 6.9671623810428525e+00 3.2974707878049281e-01 5.5836537195440306e+00 0 0 0
283 1 5.7061045639605741e+00 4.0796297570580489e+00 7.5824132514159901e+00 0 0 0
60 1 4.2186522028815681e+00 2.2182892484033334e+00 4.5682291371934207e+00 0 0 0
409 1 7.5083367496057480e+00 2.1220540833555042e+00 4.8645240674781896e+00 0 0 0
480 1 5.1749208114420400e+00 2.5255655898892138e+00 4.8024951938576788e+00 0 0 0
433 1 4.5673256924175565e+00 3.0312272337437260e+00 5.6117754666087851e+00 -1 0 0
199 1 5.7223939284600798e+00 3.3538749033879514e+00 5.4910800512721751e+00 -1 0 0
192 1 4.9768267390881453e+00 3.7841365119811416e+00 4.6001803078434103e+00 0 -1 -1
278 1 5.6702555527641145e+00 2.5004274006282547e+00 6.2529821566704680e+00 0 -1 -1
389 1 8.3174957254735915e+00 1.6343271049869099e+00 4.5229386890776855e+00 0 1 -1
198 1 6.3712143835123074e+00 2.3701711861211767e+00 5.3343819859896575e+00 -1 1 0
174 1 6.7362333514936719e+00 3.0185859601225200e+00 4.6928771980279169e+00 -1 0 0
362 1 7.5710732437599475e+00 3.5866902644627543e+00 4.5572833195711002e+00 -1 0 0
349 1 6.7406325220231755e+00 3.6852721354781934e+00 5.6982195314241091e+00 0 0 0
450 1 7.4123145783244073e+00 2.8484784420406659e+00 5.6225856265320502e+00 -1 0 0
257 1 7.9491053664243410e+00 3.9168044855957174e+00 5.6393451240080452e+00 -1 0 0
161 1 8.1555192521201416e+00 2.1160243478960168e+00 6.2307561050447005e+00 0 1 -1
277 1 4.7673528558689586e+00 7.7882403490271157e-01 7.6051519861322641e+00 1 1 0
371 1 5.7920540183795195e+00 2.9073363775980271e-01 7.7623437427553545e+00 0 0 0
310 1 5.7377801610751273e+00 1.2324585011177414e+00 7.0308634051057011e+00 0 0 -1
135 1 5.5114259301659061e+00 1.3578607430464646e+00 8.0312715494555462e+00 -1 1 -2
216 1 4.5052078042409773e+00 4.0075366720366414e+00 7.4854939201394357e+00 0 0 0
40 1 5.1397045985224619e+00 1.2361975066987815e-01 6.6603720093466388e+00 0 0 -1
281 1 7.8085467451848309e+00 1.9185260435534565e-01 6.0799276491764971e+00 0 1 -1
275 1 6.2714423811398525e+00 2.0795413849947084e-01 6.7853727432800195e+00 0 0 -1
396 1 6.5710547301883917e+00 1.6867369826255030e+00 7.0487509442878356e+00 0 0 -1
474 1 7.5541696696843648e+00 1.8918292378672577e+00 7.0951225270520792e+00 -1 1 0
188 1 7.1771864303920605e+00 8.6819527504120553e-01 6.6751282254298339e+00 0 1 0
495 1 6.7431522222952882e+00 8.1497445561478943e-01 7.6422840356622421e+00 0 0 1
279 1 7.8033526603979979e+00 6.5133205074484080e-01 8.2622188007047335e+00 -1 1 -1
108 1 4.2889847406520696e+00 1.6346070660679830e+00 7.3911034832067610e+00 0 0 -1
401 1 5.7374130009163764e+00 3.6999656284961318e+00 6.5410802414321800e+00 1 1 0
61 1 4.5980514238095811e+00 3.5393045390208440e+00 6.5072475735080957e+00 0 0 0
337 1 4.3826800971200930e+00 2.9067275447514005e+00 7.2959290720677998e+00 0 0 0
166 1 5.3332915874731963e+00 2.2145390322768121e+00 7.2986448528960111e+00 0 1 -2
82 1 5.3416089630543055e+00 3.1773973642528821e+00 7.5359859608320932e+00 -1 0 0
322 1 6.2306257565627474e+00 2.7546800263764397e+00 7.1761894481025053e+00 0 0 0
65 1 6.2692856261758489e+00 3.3342462774014066e+00 8.1338799461235975e+00 -1 -1 -1
51 1 6.7742850458937705e+00 3.8755664814820188e+00 6.8073017069809936e+00 0 0 1
320 1 6.7307365309048102e+00 2.6245971570975746e+00 6.3370694887180870e+00 0 0 0
225 1 6.7782723232573963e+00 2.3366740804586135e+00 8.0252984713650726e+00 0 1 -1
167 1 7.8952795778030094e+00 3.1978122642552953e+00 6.5150759615858709e+00 -2 0 1
489 1 7.2560536965616720e+00 8.7691701285376367e-01 4.1691588537795665e+00 0 1 0