LAMMPS data file via write_data, version 16 Mar 2018, timestep = 10000000

1000 atoms
1 atom types

0.000198238 26.7488 xlo xhi
0.000198238 26.7488 ylo yhi
0.000198238 26.7488 zlo zhi

Masses

1 28.0855

Atoms # atomic

793 1 2.2102094847276383e+00 6.9590492593541970e+00 6.5959885403911329e+00 -7 1 8
955 1 7.4317150202962590e-01 3.8570775747102271e-02 1.0170399790945521e+00 7 -6 -4
401 1 1.3192094178788579e+01 6.2583977090597678e+00 4.0972498676280127e+00 0 -4 -3
330 1 5.8361439499020067e+00 2.1991389691071408e+00 5.3424662946284922e+00 -12 4 0
962 1 6.8139047434162903e+00 1.6816837747548510e+00 2.9750452033014851e+00 -1 2 0
351 1 4.8430854493480302e+00 5.5148174461318931e+00 1.5896146576130157e+00 -4 1 0
58 1 1.1636690534232349e+01 9.1484346260873095e-01 1.5508806471197285e+00 0 7 -1
280 1 2.3085656801246284e+00 3.7431962489555461e+00 2.1323241043318246e+00 -5 -2 4
565 1 1.4304387310557538e+00 8.9408733905814195e+00 9.9595243705269149e-02 3 6 13
927 1 2.6192977472023364e+00 1.3168915267548741e+01 4.4494147621984075e+00 -7 -3 -4
574 1 6.1075210677545959e+00 3.6176837484618787e+00 1.1787767438051584e+00 -1 -1 6
992 1 9.5288619251001379e+00 2.6860992868684579e+00 2.4227145267813976e+00 -3 -2 13
950 1 9.9129804147814564e+00 6.8418697896065703e+00 3.6478497320153132e+00 5 8 0
299 1 1.1470901840214941e+01 5.2030520944623619e+00 2.3647661762658774e+00 8 -6 -2
135 1 1.1861678507035897e+01 2.8459547124053959e+00 8.7467053635284686e-01 -9 -1 2
198 1 7.5488924955390779e-01 4.3554682737232930e+00 2.3635257410089500e-01 -3 -1 -9
76 1 6.1298727715934653e+00 1.0366182869754363e+01 6.0755524904365057e+00 2 2 9
853 1 8.5182953127304835e+00 8.9813278400060668e+00 3.3121122276538864e+00 -1 -1 -5
605 1 8.3425354472055187e+00 4.2502358523799062e+00 8.3085628815151602e-01 3 0 -2
773 1 1.1622715820237882e+01 8.3296829044763410e+00 3.8208075733259790e+00 3 -2 -2
619 1 1.7750310269533709e+00 7.1765657490361621e+00 3.5925534647354418e+00 2 -2 0
931 1 2.5905195665024894e-01 9.2028234992807434e+00 4.4017995504876124e+00 6 2 8
625 1 4.0262271602095723e-02 1.6739075979646088e+00 4.0590986980028587e+00 -1 5 1
177 1 8.7770591945665331e+00 6.7314048119207506e+00 1.3087077019755764e+00 2 -4 -5
109 1 7.8616470095743052e-01 1.1061587168460013e+01 5.5746882794998500e+00 -1 -13 8
796 1 1.0523249311936945e+01 1.0508450643917961e+01 6.5163607200085085e+00 -7 2 0
310 1 2.7379041711322025e+00 1.1250414845501002e+01 3.1417283775077003e+00 3 5 -7
526 1 3.3753728840368913e+00 1.3029329617673080e+01 9.3180660102027113e-01 -1 1 -7
926 1 7.1567533903627494e+00 8.6113547464669793e+00 5.3618249427163278e-01 -6 4 -4
230 1 7.4894408965453669e+00 1.2455502871326509e+01 1.0076979996922697e+00 3 3 4
937 1 5.0479866511179958e+00 1.1695354045427647e+01 2.1323256792182148e+00 6 3 -4
722 1 1.0456796228138549e+01 1.1332141398063579e+01 4.2603376322285662e+00 7 2 0
16 1 1.0841497490922292e+01 1.1375814692533543e+01 2.7135956288796326e-01 1 3 0
435 1 3.4567954067002353e+00 1.4706152616851995e+00 5.0444610012583970e+00 -11 11 2
704 1 4.7511920147628404e+00 7.4331088955329063e+00 4.6777653561573276e+00 -4 -4 -8
711 1 3.8708637650172117e+00 2.8503074004091955e+00 4.2101651172701338e-01 -1 -1 12
559 1 8.1394141557375530e+00 8.8851844541669434e-01 5.2630906891409976e+00 3 8 4
279 1 9.9800098162620561e+00 2.4452730161344349e+00 4.7182996322824717e+00 -2 -1 -2
368 1 1.2593762623197605e+01 2.2708374595806156e+00 4.8439484952857077e+00 0 -3 4
91 1 1.2864517443067491e+01 1.0035733080794472e+01 4.8731362104614702e+00 -6 10 4
635 1 1.1342648207647271e+01 8.8758104791716370e+00 1.2914965129875526e+00 10 3 7
555 1 2.3488976313463761e+00 1.4826857862280272e+00 2.9722905152917529e+00 8 6 4
973 1 5.8845140502664774e+00 4.7046460586497583e+00 5.3550668600430420e+00 2 -5 2
744 1 7.9750306082857145e+00 4.4627258680054851e+00 3.5020665554290908e+00 2 -4 -1
741 1 9.3507979540814326e+00 4.4487669399972729e+00 5.6195527253391973e+00 -5 -3 10
720 1 1.7276553584103689e+00 4.3561124122252490e+00 5.2821723514822017e+00 4 0 4
406 1 4.7173424458167856e+00 1.3320081189062378e+01 6.0053365063304724e+00 -3 5 2
697 1 6.6308235756465477e+00 6.6367950433290908e+00 2.5884259623919816e+00 8 -10 2
126 1 8.4662924116151999e+00 9.0400201182861721e+00 5.4815615438751708e+00 10 -3 -10
249 1 1.3069873586619774e+01 1.0903217641663584e+01 1.0477392570735029e+00 -5 0 -1
571 1 3.2967629827204159e+00 2.9011874718555886e-01 5.6907834503902122e-01 -4 -12 3
456 1 1.1823431639398203e+01 4.9304256197501770e+00 5.6233384038582148e+00 3 7 1
381 1 3.6548028466141060e+00 5.1319018431806889e+00 3.7505873043971927e+00 -4 0 1
889 1 3.3229226602330773e+00 8.8662928423153140e+00 2.9949096822517114e+00 -5 -1 0
40 1 3.0095916423594210e-01 1.0138677113538613e+01 2.0944187998168209e+00 -4 1 -2
284 1 5.9778053388334396e+00 9.5848325930517948e+00 3.4803489027833070e+00 1 -7 -6
592 1 4.8886677076350962e+00 5.3852201691557397e-02 2.7855400031506496e+00 -1 -6 3
202 1 9.4576301800673495e+00 1.1125771347341827e+01 2.2149599752287936e+00 -1 7 2
18 1 1.3228393549182792e+01 3.7257535705069516e+00 3.0791212941131070e+00 -1 -2 -4
8 1 1.1753915221732562e+01 6.5824038674457848e+00 2.5910438842623240e-01 -2 -6 6
261 1 9.9490175985710270e+00 6.8743218722630708e+00 6.1858079897395877e+00 5 -3 -10
791 1 8.3679607040987865e+00 7.6327522798434921e-01 6.3631953596889190e-01 -7 5 -3
245 1 5.1201405661944950e+00 9.6762385129458401e+00 4.6199070470565445e-01 -2 -4 1
412 1 3.7470112446923718e+00 7.7101867864526872e+00 8.7796383627933106e-01 -10 3 2
102 1 1.7618596061978187e-01 6.5851516555676000e+00 1.7921872806229591e+00 -8 -1 5
996 1 7.4180754775272169e+00 1.2361354310177251e+01 6.5629743405190570e+00 -1 -2 3
781 1 2.9679401527959062e+00 2.2600697212405199e+00 9.6294083154487478e+00 16 -6 9
694 1 5.7223500231710265e+00 1.8265141096072177e+00 7.6978834861271457e+00 1 -4 -5
83 1 3.2260570812837095e+00 3.0171499433780848e+00 7.2947095310137993e+00 6 -1 1
192 1 1.2018569433082588e+01 9.2171917170967388e-01 9.8868040997712558e+00 8 0 0
971 1 1.1619115124921660e+01 1.2831060913948633e+01 8.8307752758375990e+00 0 -2 0
503 1 3.1341899123465411e+00 5.4302470484963807e+00 1.0549362320271900e+01 -5 -3 0
719 1 4.7275234273291771e+00 5.3015481183106488e+00 7.6724827693520954e+00 2 1 -4
391 1 7.3400810204325397e+00 3.3540270142704358e+00 8.7561960405927834e+00 3 1 1
989 1 1.0675575360651635e+01 5.6155310262342208e+00 8.7195272713768652e+00 -4 -3 -3
647 1 4.8615860862450422e-01 3.3899894972930733e+00 7.2168798051947984e+00 4 5 8
374 1 7.3304671753648432e+00 5.1324129049396410e+00 7.4665258054459711e+00 -2 -1 0
669 1 1.2476417506145745e+00 5.5856100234168062e+00 8.4777654684701407e+00 -2 -1 2
114 1 2.4818551171781253e+00 9.0013116288122941e+00 8.0876293685805329e+00 -1 -3 4
117 1 4.5335283739646268e+00 7.5483323703531644e+00 9.3860953192148351e+00 11 3 2
392 1 8.8158277147670070e+00 1.7868569469941138e+00 8.0435426552826925e+00 -6 2 10
976 1 8.2478099367516293e+00 7.2568337253821511e+00 8.1677215185233489e+00 5 10 -5
831 1 5.8208998567977464e+00 8.1152373476336059e+00 7.1472209258154376e+00 -1 -1 0
693 1 6.0039143898328104e+00 1.2504139403608908e+01 1.1079890327586146e+01 -1 1 7
828 1 5.8304016416854243e-01 7.5303705051797953e-01 1.1409473655066900e+01 0 2 7
621 1 1.2620526579514390e+01 4.1176222025485734e+00 1.0322264103598625e+01 1 -1 1
112 1 1.3616663494956773e+00 1.0906269279632671e+01 1.0657806108204024e+01 -3 6 1
442 1 9.4012942101849895e+00 9.0380619328336778e+00 1.0249660742622616e+01 5 9 6
42 1 6.5726577463991065e+00 1.0136148597005537e+01 9.6948147345485296e+00 6 0 9
547 1 6.7192417135308009e+00 8.2341934721327572e+00 1.2611169879891214e+01 4 -3 -4
614 1 1.5098111032158628e+00 1.2643362478444361e+01 8.2591091539660582e+00 3 -4 -5
49 1 7.2035361363141757e+00 2.1046624898082444e+00 1.2868406261360924e+01 -4 4 -3
587 1 9.9779968946635496e+00 1.2746775784918757e+01 6.9081527522357868e+00 -9 0 5
779 1 3.8610408618294709e+00 1.2216802937163433e+01 9.0909340619640169e+00 -4 2 -9
78 1 9.2874700507392269e+00 1.1392355462536742e+01 1.1586837883100737e+01 -2 1 -2
366 1 1.1542018154265326e+01 8.3199786718048756e+00 1.2957700735802044e+01 6 0 3
708 1 1.2392490653431249e+01 1.0338389690539708e+01 8.5040864434447361e+00 4 2 1
680 1 1.1306893482536504e+01 4.0259866946948014e-01 6.8449501165417050e+00 -6 -1 4
668 1 1.8528693932863596e+00 2.8834556577596948e+00 1.1626985617329940e+01 -10 4 -1
729 1 4.8800248299559490e+00 3.9859798801825734e+00 9.8555278992094806e+00 -11 8 2
338 1 4.9377967167730548e+00 1.0980651909420893e+00 1.1272148786415409e+01 -4 1 -3
864 1 8.4306774663798578e-01 5.0371732842461405e+00 1.1660606143714709e+01 -4 -5 -7
475 1 8.8832028914428491e+00 5.6155051202249384e-01 1.1549263018500303e+01 -1 3 -5
642 1 3.5266972643680745e+00 9.6628544809763426e+00 1.2472324401489510e+01 8 1 4
68 1 1.0318507839862818e+01 3.3710908470090315e+00 8.0518922836156968e+00 -11 -2 1
734 1 5.8179049854777052e+00 1.0428118167101545e+01 1.2635144959911582e+01 -3 13 9
439 1 4.1102498147845727e+00 3.6087703234395394e+00 1.2757638939628512e+01 1 -4 1
471 1 8.2058811115958399e+00 3.8749263535226763e+00 1.0981069862029978e+01 2 6 -2
319 1 6.1954392273748793e+00 5.6407133353086856e+00 1.1983527029071206e+01 10 6 4
7 1 1.1012643464801615e+01 6.0443663230325573e+00 1.2162415924373494e+01 0 5 -6
676 1 1.1430334580370825e+01 1.2052533397625265e+01 1.1057538485230051e+01 3 -9 5
41 1 1.0174326696137950e+01 2.7256326445356778e+00 1.0747199634270483e+01 0 4 9
584 1 8.4169740849352415e-01 8.1678869000017702e+00 9.7601341133863819e+00 6 8 -1
515 1 4.0734249507431013e+00 7.1768502192243702e+00 1.2389580240398585e+01 -1 4 0
458 1 9.3632217710184538e+00 6.1284183863223065e+00 1.0669402140974515e+01 9 -6 3
534 1 1.1766059567818914e+01 8.9101511109231968e+00 1.0219379381013722e+01 7 5 -2
99 1 1.2960703403318691e+01 6.6553681435178857e+00 9.6162307504600708e+00 4 -17 9
692 1 1.1690881771885011e+00 1.1975189477430908e+01 1.3033798657646678e+01 3 1 7
576 1 3.9383009499745061e+00 9.8434485591264842e+00 1.0203639532816903e+01 6 -12 5
283 1 1.2797689697051647e+01 2.1203910352367519e+00 1.2205245375062431e+01 3 -8 -5
223 1 6.8740951729020940e+00 7.5519624014679163e+00 1.0251646216551798e+01 -4 5 5
3 1 8.7473301015757379e+00 1.0163800025468028e+01 7.7574841192165280e+00 -1 0 -6
866 1 1.3430399418169872e+00 7.5647518274509693e+00 1.2172299868397292e+01 2 0 3
222 1 1.4429456426777314e+00 5.6837167483018070e-01 7.7273408493252740e+00 2 -8 -6
525 1 1.1765266439914956e+01 8.0840105166976777e+00 7.2667719119934464e+00 5 -8 6
433 1 1.2291788137018798e+01 2.6017607492700852e+00 7.1939432259279226e+00 0 0 -3
513 1 9.2664550398846064e+00 8.5364966505709585e+00 1.2992835805810794e+01 -3 -1 1
873 1 9.8217113141761843e+00 4.2609263841011984e+00 1.3276866581757250e+01 -10 0 -7
257 1 3.5523389261221583e+00 1.1093250356673613e+01 6.9545777717383253e+00 5 -6 7
617 1 1.7639509998116381e+00 4.2624842711884474e+00 1.5818361798099328e+01 4 7 -3
495 1 3.0247288914858617e+00 1.5486357528502372e+00 1.5660616239735221e+01 3 -3 1
624 1 5.4891768873125342e+00 2.6691612931451267e+00 1.4935611230311538e+01 2 2 0
646 1 1.0988717781373216e+01 6.3382939568085606e+00 1.6232266619415789e+01 -10 3 -5
644 1 1.2883171973902585e+00 7.5697897187373693e+00 1.4543971707041095e+01 3 -2 -5
67 1 1.2128290430434125e+01 2.0207023221049716e+00 1.8044976712722804e+01 4 1 2
175 1 6.3641104670317237e+00 4.8602159912737459e+00 1.8047671131138049e+01 -7 3 2
672 1 7.4834223655365522e+00 4.5232542602273398e+00 1.4210527555768540e+01 -1 -8 -3
807 1 3.4749741641036720e+00 1.3347714346554968e+01 1.4486107668603218e+01 -4 6 -3
851 1 1.1357117566625591e+01 4.2600740136427646e+00 1.5434545481763692e+01 -3 -3 -4
561 1 1.1707892107621902e+01 8.3702573713545032e+00 1.7795575887397064e+01 5 2 -5
483 1 1.0474830653863460e+01 9.9547106365155642e+00 1.9525208377599146e+01 7 -3 -8
925 1 5.1632324859950174e-01 5.3042419136083181e+00 1.4192642118867099e+01 6 -5 6
935 1 4.3579932154338419e+00 4.3771365268569884e+00 1.6565643704138164e+01 3 -1 6
28 1 2.7009460763551987e+00 6.2235786192494560e+00 1.7309960333368455e+01 -4 0 7
468 1 9.1132161497758055e+00 1.0804334607153701e+01 1.4206671352625539e+01 5 0 -2
801 1 9.2393751317299770e+00 7.5686046396264688e+00 1.5067385667104515e+01 -1 3 3
20 1 3.2884169189958046e+00 9.2388102077701326e+00 1.7589223062681555e+01 -1 3 1
487 1 7.2320541329676429e+00 1.0122368342888870e+00 1.9855688329522728e+01 -2 8 -3
167 1 1.4835203642497079e+00 1.0297476232924210e+00 1.8314251952862353e+01 -1 2 1
710 1 2.6074446472101940e+00 1.0338111108063702e+01 1.4532568853340443e+01 2 2 1
651 1 6.2526196081300167e-01 1.1152768335434965e+01 1.6063924544247033e+01 6 0 -3
882 1 6.5488483823873578e+00 8.0344999721667527e+00 1.5639428696796735e+01 9 2 7
700 1 8.3327320030512624e+00 1.3158463717862642e+01 1.4942049113628235e+01 0 3 -6
6 1 5.6667339357702107e-01 3.7132647868821569e+00 1.7821808878672183e+01 0 -2 -4
660 1 2.7787737831067645e+00 1.1627367694706225e+01 1.7956205440103037e+01 10 -5 0
983 1 3.4779627486273528e+00 7.9250366576219013e+00 1.5372936999673732e+01 -2 6 8
906 1 1.1702563243911563e+01 1.2528706730481170e+01 1.6240358238967822e+01 -2 -1 -1
422 1 6.7266697047705888e+00 1.0360216801349068e+01 1.4889773447917827e+01 -1 7 -6
178 1 1.1802357233558638e+01 1.0636138307457145e+01 1.4527902771888074e+01 0 3 -7
678 1 4.1981639403826145e+00 1.8381266600341775e+00 1.7985231567801556e+01 5 -1 8
664 1 7.0138945921699278e+00 6.6421625427481228e+00 1.9374219460230361e+01 2 3 3
282 1 9.7854820871196786e+00 9.6607854511371531e+00 1.6142377517501995e+01 8 -1 -8
829 1 8.2938365313643541e+00 1.0057079630987422e+00 1.4769265355631541e+01 -1 10 0
578 1 6.2640743369471048e+00 5.4103419136777364e-01 1.7879151464336090e+01 19 -12 -3
38 1 8.0477237266328636e+00 1.1973577596589099e+01 1.7037324750719719e+01 7 -3 -5
432 1 1.2771256808256573e+00 4.9621297478658875e+00 1.9560933253591493e+01 -3 -2 -2
730 1 3.3361108965812054e+00 3.4904675700195127e+00 1.9851671714371584e+01 2 7 0
843 1 2.2692467965073349e-01 2.0214972834397678e+00 1.5153813481806514e+01 0 -7 4
390 1 7.4371240148340734e+00 2.4140802297264186e+00 1.6450664022247938e+01 0 7 -3
347 1 1.0127107710747284e+01 3.3290685360961936e+00 1.7148803555462674e+01 -5 9 5
367 1 1.2993986458927267e+01 6.7864974979588046e+00 1.4564591743453384e+01 1 5 3
235 1 8.7431536103292888e+00 3.6718191749352869e+00 1.8971703319844956e+01 0 -14 1
123 1 4.5381198410535877e+00 1.1036774843031512e+01 1.5695940424153402e+01 0 2 6
905 1 1.1117967609743337e+01 5.0934606298218235e+00 1.8625809415998006e+01 7 2 1
930 1 1.1151083437478544e+01 7.0770982373650204e-01 1.5870968940036075e+01 8 -1 1
863 1 8.0071461579151695e+00 5.6382956594308187e+00 1.6408216527588184e+01 1 8 0
119 1 9.2608187437298088e+00 7.4672358287565928e+00 1.8502461851363957e+01 2 1 -5
341 1 1.3185129696808243e+01 3.8234972443075859e+00 1.9107439336309586e+01 -8 -2 -1
404 1 8.6633425140458931e-01 8.2678286760582367e+00 1.8583297094614323e+01 0 4 -7
343 1 1.1492966574684237e-01 1.0725452456550784e+01 1.8410700138883538e+01 -10 1 -5
908 1 5.2601295319717867e+00 8.2790171454180772e+00 1.9253743074502395e+01 7 1 6
104 1 7.4855394858799302e+00 9.1650938667244617e+00 1.7584921207002463e+01 0 -6 -5
221 1 1.2053444562544486e+01 1.1815071066236840e+01 1.8727499670646210e+01 2 0 2
266 1 4.6778351347728648e+00 5.6896599257661888e+00 1.4321908820930195e+01 0 -6 6
314 1 5.5615171925882496e+00 1.0975633819935702e+01 1.8323185048270567e+01 2 1 -3
922 1 1.0930305358106603e+01 2.0474795633317728e+00 1.3700050549942178e+01 -1 -3 2
891 1 1.1249807877479048e+01 3.2086780696854333e-02 1.9246136369967001e+01 -4 -2 -1
365 1 1.1009099684420860e+01 1.0131175136946116e+01 2.4503165062265577e+01 1 7 1
64 1 6.7057139310280007e+00 1.3030313547480977e+01 2.5654270238136160e+01 -10 3 7
508 1 9.9028403975720352e+00 1.6886859769161069e+00 2.0508485011978284e+01 2 -2 9
813 1 1.2294080345632979e+01 3.0205327555384937e-01 2.3998264523504400e+01 -4 7 -3
531 1 1.0345333262277101e+01 4.1872701656604177e+00 2.2498205710745207e+01 5 14 -2
865 1 9.7816635088877799e+00 8.1984476505421995e+00 2.5817130195583267e+01 11 0 0
907 1 2.4459007603948388e-01 1.6498766689717279e+00 2.1519013368813276e+01 1 -1 -2
32 1 1.4642298947717227e+00 7.7906816474612448e+00 2.0888430142400377e+01 3 1 10
37 1 2.6890200645887830e+00 1.6251940176900614e+00 2.1202295926674523e+01 7 6 2
420 1 7.4352890371780234e+00 4.2367690516948899e+00 2.4491938329817931e+01 -2 10 -1
496 1 6.1530590880467066e+00 3.0573364004379684e+00 2.2624101040019397e+01 -6 9 -8
878 1 8.9070918865155733e+00 2.3727341144680709e+00 2.2587778508643183e+01 7 7 -6
946 1 9.8974276459064754e+00 1.2152626093972399e+01 2.3124348233722735e+01 -1 2 2
488 1 2.1283964387744145e+00 5.6412469664360838e+00 2.2544997746330043e+01 -2 3 4
129 1 7.6530823348696631e+00 6.2581845139910905e+00 2.1886243593126387e+01 3 -3 1
124 1 7.8868569319464266e+00 8.6697516790719362e+00 2.2863126094465724e+01 3 -3 9
363 1 1.0704223706656936e+01 5.5635236233538405e+00 2.4411541906904009e+01 -7 6 -7
388 1 3.0993609532771513e+00 1.2262761125865184e+01 2.1172497652756597e+01 1 1 10
77 1 9.7467907242374370e+00 5.4472433312759971e+00 2.0800627314287755e+01 -4 -8 -4
71 1 2.6419981115222995e+00 9.5091437060671211e+00 2.2443355811451323e+01 2 0 1
103 1 3.0483273592999462e+00 6.8846188874982737e+00 2.4863056119193960e+01 -9 4 1
790 1 5.3232908193136801e+00 6.2270010228449513e+00 2.2773967151377704e+01 0 -8 -5
155 1 4.9042568704533283e+00 8.6019196399272282e+00 2.2822203558366670e+01 1 -8 0
958 1 7.1404418484759482e+00 1.2981954710297273e+01 2.2378384913462824e+01 -4 8 8
291 1 8.3977830905022710e+00 1.0259790687713572e+01 2.6079760907307151e+01 -3 0 -3
274 1 1.0129191665684557e+01 8.7921293080886844e+00 2.2773874676214241e+01 -1 -5 -2
550 1 1.1382009977534539e+01 1.0974153014752323e+01 2.1562527276592338e+01 -5 -6 4
360 1 6.0687576080275925e+00 3.2177957830059492e+00 2.0073034625939197e+01 -2 -5 -9
425 1 4.9569724612016124e+00 1.0510663403722830e+01 2.0760944712801845e+01 -1 -1 9
805 1 3.5156549078381696e+00 6.3884314069885075e+00 2.0139383261165289e+01 2 -1 1
419 1 7.3539915350322627e+00 1.0561684375438329e+01 2.1048042526920600e+01 -7 2 -2
825 1 7.8404603113953488e+00 1.0957906522381814e+01 2.4017540914945052e+01 7 -6 4
763 1 6.6914991159118928e+00 6.2867372617846740e-01 2.3280317388680526e+01 -1 11 2
991 1 6.5626144487779425e-01 7.3391273826741283e+00 2.5298283709554198e+01 1 -1 -4
804 1 9.7616181474807497e+00 1.4572241701953395e+00 2.5371025787410385e+01 5 2 3
787 1 3.1383900059747050e+00 2.2843566002025688e+00 2.3752383593920818e+01 5 -1 -2
862 1 1.3264065146350243e+01 1.0168664182590621e+01 2.4820700843309059e+01 -4 -3 -3
998 1 4.5355359974542395e+00 3.7298323564710095e-01 2.4855728508294987e+01 5 -3 9
800 1 1.2372163881529861e+01 6.5573949600944506e+00 2.2854224712908024e+01 0 3 1
73 1 1.1297738295622878e+01 3.2056622889675670e+00 2.5332623446013226e+01 -4 0 -3
924 1 3.9711876875382055e+00 4.0468426343879669e+00 2.2066224485109657e+01 0 -2 -2
795 1 2.8473787620995847e+00 4.0465268241060715e+00 2.5340963221098388e+01 1 1 -2
225 1 5.0010372419436635e+00 5.3864374341074450e+00 2.5794042576293247e+01 -3 -3 -4
712 1 8.5401000491521248e+00 6.4560567748900048e+00 2.4160741200334343e+01 8 -4 -1
233 1 2.9095091911864754e+00 1.2542869757854699e+01 2.3535947272617115e+01 -2 1 -1
47 1 9.3738072516939153e-01 1.1057843572312988e+01 2.0660981232389524e+01 -3 -8 -1
769 1 1.3057869597348775e+01 2.7248336065533523e+00 2.3854570385277984e+01 -3 6 4
142 1 6.4166818498516225e+00 7.2942474101832930e+00 2.5207922945539330e+01 5 1 -4
994 1 5.3860787880418899e+00 9.6831852543900148e+00 2.4879303606294005e+01 7 1 -3
101 1 8.6899280075579899e+00 1.2199551340328187e+01 2.0169341683747106e+01 7 -3 9
517 1 1.0585255975241616e+00 1.0348988195467447e+01 2.4424878617395443e+01 -4 -4 -4
944 1 5.5867459603243630e-01 1.6177355187087288e+00 2.3927430632078377e+01 -4 2 2
1000 1 3.1622450675723663e+00 1.1100819935295778e+01 2.6063547069110658e+01 5 0 2
943 1 4.8940121816795141e+00 1.1963507644334953e+01 2.4175524419901173e+01 4 -1 -4
281 1 6.4015404261220112e+00 2.2044986238111162e+00 2.5689091353478847e+01 -8 6 0
113 1 1.2343016840974807e+01 2.8334978111112465e+00 2.1440146055877609e+01 1 0 -3
830 1 1.1023816371921757e+01 7.2742960698183765e+00 2.0523062511134651e+01 -3 -3 1
145 1 1.8029554627936737e+00 1.5821235088165386e+01 3.4095348970358130e+00 4 2 9
546 1 4.2092671530087760e+00 1.4927534590011001e+01 3.3606378295172923e+00 6 -2 -2
696 1 1.4830987771713495e+00 1.4057333753275779e+01 1.7099067908673311e+00 -6 4 9
87 1 3.8940315091769850e-01 1.4924145801100611e+01 5.1472617285064013e+00 6 6 4
535 1 1.0461379802728507e+01 1.5428782683236234e+01 3.4280621171667119e-01 7 -1 -2
666 1 9.4394363339267571e+00 2.0513759279882994e+01 2.8274041394410432e-01 -3 -4 -7
328 1 2.0390114791018430e+00 1.8193244416915864e+01 3.1619519285173907e+00 4 3 -11
850 1 1.3347353742947401e+01 1.5934389175709846e+01 6.5165892628911637e+00 -5 -7 3
885 1 1.2243730411654434e+01 1.5671799400181840e+01 3.0270258672734389e+00 -9 -2 11
536 1 7.0614298341323245e+00 1.9948060534532498e+01 2.7996182635672673e+00 -7 3 2
238 1 5.7248274771847119e-01 2.5045026407552360e+01 6.3746328345352810e+00 -6 3 -9
528 1 8.3322187312252964e+00 1.4912638205242500e+01 1.5632887544395653e+00 4 8 1
156 1 1.2995833739607850e+01 1.8729285886006785e+01 3.4160908975110398e+00 4 -2 6
539 1 1.1663479985874449e+01 1.7391124108185881e+01 1.2447997460072517e+00 -2 2 2
174 1 1.0767272920259082e+01 2.4441368306209924e+01 4.7909260506165126e+00 6 5 -9
915 1 1.0126606876252888e+00 2.5386546956479663e+01 3.6537722394381138e+00 5 6 7
661 1 6.4328360719686577e+00 1.9606723802734667e+01 4.3959539836095396e-01 -3 7 -14
182 1 6.1743319558221739e+00 2.1946295731154216e+01 4.0486937781903825e+00 -3 -1 6
454 1 3.9355145446728232e+00 2.6611321514934772e+01 6.5050423430787205e+00 6 6 0
194 1 1.1820185383792039e+01 2.1556182736114724e+01 1.5394015672187757e+00 4 2 12
518 1 1.9330069639881229e+00 1.9114254229846999e+01 6.4336600753581896e+00 -5 8 1
778 1 4.1301249599542045e+00 1.9735478159230567e+01 8.5236379309317922e-01 1 0 3
431 1 4.9473421214994353e+00 2.2291597591525541e+01 1.9472594118446551e+00 -3 1 4
818 1 2.3305289060905330e+00 2.3998686870671836e+01 1.3111023620024764e+00 1 -1 0
980 1 9.3880068023986532e+00 2.1696834742639506e+01 2.4901360982316443e+00 1 1 11
677 1 5.5112750249762286e+00 2.4772664980190203e+01 3.3684629056595208e+00 -4 -4 5
859 1 9.7602730382299825e+00 2.4267172881363209e+01 1.4296679538412433e+00 -1 -4 2
51 1 3.5345316829763331e+00 1.7437387422118540e+01 5.9615581270618934e-01 -3 5 5
286 1 4.7928123742594275e+00 2.4476980395448685e+01 3.2649259722355939e-01 8 4 2
568 1 8.4727903488528540e+00 2.3478143491071918e+01 4.5850657658185892e+00 -5 0 -2
978 1 1.0983275054258050e+01 2.6517718303795437e+01 4.0075624544629758e+00 1 -4 -1
523 1 7.2041151041798202e+00 2.4538333687152402e+01 1.0808971325876962e+00 -4 0 -9
705 1 2.6748314714653931e+00 2.3408107013327434e+01 4.0739745454571574e+00 7 -3 -3
923 1 7.8518312787512574e+00 1.7607743329892802e+01 5.3531878169383456e+00 6 2 -2
372 1 5.1727701354528905e+00 1.6244736495784778e+01 5.5516274188596908e+00 -8 2 -1
640 1 9.3891409202940501e+00 1.3990830062070597e+01 3.8459589678090680e+00 5 -6 -2
424 1 9.6198642637295695e+00 1.5418162992991027e+01 6.5047262230828213e+00 5 0 -1
784 1 7.7870069561310871e+00 2.5615239359042448e+01 3.9928362195680700e+00 7 7 4
362 1 1.1689223776386527e+01 2.1796522566864571e+01 5.2097324967867626e+00 -4 -2 0
732 1 1.1588974839277482e+01 1.7504270101288448e+01 6.1431285797719841e+00 -4 6 6
615 1 2.9565824163571670e+00 2.1174735996325037e+01 2.9510749942885313e+00 2 8 0
629 1 7.3575623069361704e+00 1.4707108730619051e+01 5.4690921111177051e+00 7 -4 -1
606 1 5.6752032405157751e+00 1.7821599048803691e+01 3.5294830602478777e+00 -1 -6 -3
295 1 7.6014147364011535e+00 2.0381752552046184e+01 6.4550699802974663e+00 -1 -4 1
127 1 1.0251324576253110e+01 1.8375633511907846e+01 3.6664615923794566e+00 0 5 -1
797 1 8.2584827047288378e+00 1.7595341627146745e+01 2.5305297035068226e+00 4 12 -8
85 1 9.2391233741581686e+00 2.6270794752120914e+01 2.3248459454001860e+00 -8 -5 2
324 1 4.8748935970398808e+00 2.4083350242150338e+01 5.8767680010918619e+00 -2 8 4
180 1 1.3247351887785827e+01 2.3888565789398655e+01 4.0962227547000190e+00 -4 6 -1
199 1 3.9711845879921603e+00 1.9592584184994848e+01 4.6209785664719831e+00 6 6 4
26 1 9.5242207540458956e+00 2.0640919570552480e+01 4.5333691698727829e+00 -11 6 5
408 1 2.2375228950237513e-01 2.1096342131978869e+01 3.9202258302895068e+00 -7 -8 -6
883 1 1.2807537910233069e+01 1.9562718340169404e+01 5.7535831457833124e+00 10 1 10
305 1 4.9828298539484113e+00 2.0992699083819183e+01 6.1594863598156957e+00 5 2 -1
427 1 6.3466728224642432e+00 1.3613460055022113e+01 3.4036621888555452e+00 5 6 -4
149 1 6.0472480662571790e+00 1.5985974137862925e+01 1.3414911378568093e+00 -2 -2 -6
440 1 9.0822890066382467e+00 1.8280230088109121e+01 1.9043465655102315e-01 -4 -6 -6
686 1 2.8466802404057429e-01 1.8851684799372016e+01 4.7335888861574551e+00 0 -1 1
679 1 1.5382948037040919e-01 2.1119482202357933e+01 1.6603149747394792e+00 -4 3 7
854 1 7.3151833465269638e+00 2.2275472579607118e+01 2.9824285327232181e-01 9 0 -1
158 1 8.8331879248697065e-01 2.2997521676507194e+01 5.6775897998204359e+00 -3 -2 -4
912 1 1.2171911138666770e+01 2.4366796083886705e+01 2.0107738373509414e+00 -7 2 4
469 1 1.1562282137989202e+01 1.4330452814207840e+01 5.5846824983529881e+00 8 -16 0
685 1 1.1659474236875225e+01 1.3633244429239046e+01 2.1335177660041071e-01 3 4 -3
354 1 9.7927501723329854e-02 2.3793912073546718e+01 1.2642394043778613e+00 4 -9 -11
25 1 9.6884836011273756e-01 1.8949753668560000e+01 8.7152040723685154e-01 -14 0 -1
548 1 1.1563131084396998e+01 1.3382241635957095e+01 2.6379783741038652e+00 3 -6 2
333 1 2.5059167739697363e+00 1.6030399454990945e+01 9.9785064702086697e+00 0 -2 1
55 1 4.9085701713861116e+00 1.5137364618916909e+01 8.0301318530860755e+00 -8 0 -2
307 1 4.0138563131218872e+00 2.6341006431144269e+01 9.0396462140217810e+00 -12 6 -4
94 1 1.1594026149820031e+01 1.6647310653941208e+01 1.0169117734720103e+01 1 6 -8
600 1 7.9806133965753900e-01 2.0018225807217910e+01 1.1482588346261924e+01 10 -6 1
15 1 4.1547111534338770e+00 2.1185900075250842e+01 1.2510396538873819e+01 -1 8 -7
467 1 2.3756552665476076e+00 1.4718008853272133e+01 7.4131297697291467e+00 -12 0 -1
118 1 1.2915936550686502e+00 1.8097673442308881e+01 9.8001834176339937e+00 8 -9 6
820 1 1.2371604474054974e+01 2.5492846054398161e+01 1.1223516706283689e+01 -3 4 -4
60 1 1.0229775533948176e+01 1.5121854840019402e+01 8.7835892591652236e+00 10 0 -7
241 1 4.7238944817635984e+00 1.7428657599267822e+01 9.7903782921438403e+00 -2 0 -5
941 1 8.2256907916545483e+00 2.5778498091691908e+01 9.4133131334249374e+00 -4 9 5
786 1 7.2395765555501166e+00 1.7487626190799435e+01 1.0185007258916725e+01 3 -4 -9
968 1 8.0081151755688893e+00 1.8131275823116678e+01 7.9107930237836523e+00 3 1 -6
871 1 1.2477923971144889e+01 1.9179405298562433e+01 9.8346389313208764e+00 -3 -2 -3
438 1 1.0206900097682000e+01 1.5248827384828486e+01 1.1993222643913137e+01 -4 0 8
837 1 1.2886105228415245e+01 2.3216526466849110e+01 6.9941198207366400e+00 4 -2 1
316 1 2.5305703840541818e+00 1.9963229187759669e+01 8.8992566625597558e+00 1 -5 -1
472 1 6.9823862555960883e+00 2.0247469641770810e+01 1.1099096545400457e+01 -13 -1 4
436 1 4.8511891282531918e+00 2.0533792157459139e+01 9.9000707866940942e+00 6 5 12
858 1 1.0831848918178015e+00 2.2967417942809142e+01 1.1407464701060968e+01 0 -7 -5
405 1 5.5321044851821481e+00 2.4512625820429935e+01 8.9441797044044709e+00 2 15 -6
115 1 8.1418714182994449e+00 2.2814577442940671e+01 1.1444644949143951e+01 -1 3 -1
608 1 2.8419458347159674e+00 2.1896823989869386e+01 6.8596520162954180e+00 5 -1 -5
895 1 8.4298261803277690e+00 2.0854647045359062e+01 8.7572435684257321e+00 0 -5 3
627 1 3.5042972434196153e+00 1.7555096605278468e+01 7.3225658649751191e+00 -5 -2 -3
810 1 1.1066269001335014e+01 2.3174491866612549e+01 8.6977508475145520e+00 -2 -11 2
385 1 2.7292750484262935e+00 2.4416900080868306e+01 1.0806797226105703e+01 6 -2 -7
382 1 7.6080225953474756e-01 2.5666350151476450e+01 9.6073446294297611e+00 2 -1 -2
687 1 2.6968728504001005e+00 1.6586197489076039e+01 1.2619876877505019e+01 -3 2 -3
349 1 8.4141768672632935e+00 2.3279929517051709e+01 8.8453660022946661e+00 0 -1 -1
216 1 5.8753186328146310e+00 2.3901603064730757e+01 1.1355486685152618e+01 -7 4 -2
421 1 1.0803232729007624e+01 2.5607411388804312e+01 8.7541729328248117e+00 1 4 -1
116 1 1.0162864340546788e+01 1.7865126760071373e+01 8.0866446706936603e+00 4 -2 -2
952 1 5.4709167952273372e+00 1.5185670382495275e+01 1.1176656161368335e+01 -2 -1 -3
956 1 8.0026180581778981e+00 1.5083576764917590e+01 9.9342524706195015e+00 0 -3 2
287 1 6.2778717870257417e+00 2.6003300253412519e+01 1.1725676144469899e+01 -3 -4 6
125 1 1.1953864873149115e+01 1.3943191531624000e+01 1.2110447318732257e+01 1 0 -2
250 1 4.0227831713866262e+00 1.8828389333970307e+01 1.1635374359355827e+01 4 5 5
213 1 7.2955829393862324e+00 1.7750542060806001e+01 1.2326532331596667e+01 0 -3 -3
833 1 9.7667102462653279e+00 1.8361665358706531e+01 1.2267274592377486e+01 8 3 14
984 1 5.5779111318640888e+00 1.9198408492344313e+01 7.9878921672234275e+00 -4 6 5
868 1 1.3088069053470136e+01 1.7098692200727886e+01 1.3119441366153543e+01 -2 2 -1
909 1 3.9533454435898481e+00 2.2790192380758825e+01 9.0156937428258512e+00 -2 -3 8
461 1 6.5594004261358325e+00 1.3502713574089048e+01 8.8589858490006161e+00 1 -3 4
451 1 5.2794869945642908e-01 1.6561698342367183e+01 7.2924066725211425e+00 -5 8 -6
776 1 1.0235413677391819e+01 2.2253834013580562e+01 1.2601285151251842e+01 -1 -2 2
290 1 1.0168321469291575e+01 2.0174955391869226e+01 1.0565663634086361e+01 4 2 4
551 1 1.0916331819917854e+01 2.0559787136778855e+01 7.8070552432049780e+00 -2 -2 5
611 1 6.8053056922208972e+00 2.6235597325679809e+01 7.1821887307996191e+00 3 0 -1