LAMMPS data file via write_data, version 16 Mar 2018, timestep = 1000000

500 atoms
1 atom types

0.0000000000000000e+00 8.0091563651753432e+00 xlo xhi
0.0000000000000000e+00 8.0091563651753432e+00 ylo yhi
0.0000000000000000e+00 8.0091563651753432e+00 zlo zhi

Masses

1 1

Atoms # atomic

63 1 3.1702611182249187e+00 3.1472516770250523e+00 3.1518166200442379e+00 0 0 0
39 1 3.9818478207314101e-02 2.4211853918388826e+00 2.3223790802089614e+00 0 0 0
251 1 3.9930920364859199e+00 7.8244731757349939e-01 7.2048651897445692e-02 0 0 0
62 1 1.6537536035633211e+00 3.2694865649031573e+00 3.1098294735376948e+00 0 0 0
34 1 3.2843395175657428e+00 2.2486692603127523e-02 1.6391801261020267e+00 0 0 0
73 1 3.1496449027778946e+00 2.5319347344611591e+00 3.9128986462371671e+00 0 0 0
301 1 3.9759961506409551e+00 8.9096605337010837e-01 3.2814515842441891e+00 0 0 0
8 1 1.5662946607004899e+00 6.4571261985595751e-01 8.5824653579479204e-01 0 0 0
25 1 3.2334008051711201e+00 3.0860867935168024e+00 3.3755164948851758e-02 0 0 0
10 1 3.2165011899484131e+00 7.6244577841522509e-01 7.2991750435820058e-01 0 0 0
60 1 3.1161361980656288e+00 1.7329614816684895e+00 3.2335174502699724e+00 0 0 0
28 1 7.1405526848879608e-01 3.7189670334369040e-02 2.4378229843744168e+00 0 0 0
13 1 8.0885484847749445e-01 1.6352152061281582e+00 8.2774986731473776e-01 0 0 0
64 1 6.0419430134765062e-01 5.9227022809286822e-02 3.8469605542480028e+00 0 0 0
50 1 3.2555287256076690e+00 3.2426434034138900e+00 1.6022258820958841e+00 0 0 0
177 1 2.3489338532253563e+00 3.9743813499728669e+00 3.1864123112291667e+00 0 0 0
17 1 2.3516292350804520e+00 1.4789257024425717e+00 7.6625650470827500e-01 0 0 0
18 1 1.6081204612253763e+00 2.3026013332086688e+00 9.5823550425644699e-01 0 0 0
287 1 3.9963634464803768e+00 1.7482681073682809e+00 2.5142410338219117e+00 0 0 0
20 1 3.2368541582476156e+00 2.4096827706914214e+00 9.3039542836325784e-01 0 0 0
296 1 3.9320026389566278e+00 3.3095693004919076e+00 2.3882462290684638e+00 0 0 0
22 1 8.1272856681832006e-01 3.1844094676879977e+00 8.1255876674973848e-01 0 0 0
52 1 7.1748410728922507e-01 9.3051137167805520e-01 3.1205465306380038e+00 0 0 0
24 1 2.4534772667308782e+00 3.1646634109602769e+00 8.3148237762188193e-01 0 0 0
45 1 3.2558658797722932e+00 2.4901360738363154e+00 2.2605950861072359e+00 0 0 0
59 1 2.2873325606991513e+00 2.3768034094074273e+00 3.2723793702989741e+00 0 0 0
27 1 8.2781925522717736e-01 7.8847679307100493e-01 1.5960993282282701e+00 0 0 0
47 1 8.2246041651497837e-01 3.2612284374347982e+00 2.3352974808560485e+00 0 0 0
58 1 1.5259001002318040e+00 1.6778195083092797e+00 3.1921403701531319e+00 0 0 0
49 1 2.4151715152012962e+00 3.1515731257179485e+00 2.3248673837434293e+00 0 0 0
31 1 2.3816798865206912e+00 6.7542782674804691e-01 1.7132512951074754e+00 0 0 0
44 1 3.1931882889269652e+00 1.4759841908108227e+00 1.5879382212287207e+00 0 0 0
33 1 1.5732283335377102e+00 8.0063704709340133e-01 2.4089073373319709e+00 0 0 0
54 1 2.3534831334942434e+00 7.8240881460632261e-01 3.1273933030589212e+00 0 0 0
35 1 3.1886628338273328e+00 7.0444867060743366e-01 2.5353164877450203e+00 0 0 0
57 1 8.9359429697696446e-01 2.4936875031840553e+00 3.2067737596605279e+00 0 0 0
37 1 7.5298165032320186e-01 2.4407538110468687e+00 1.5122296517843818e+00 0 0 0
38 1 8.5099823378869544e-01 1.5975793961556783e+00 2.2704763961456171e+00 0 0 0
48 1 1.6396004564969768e+00 3.3204238136753830e+00 1.6777991569317727e+00 0 0 0
40 1 1.6840567375428723e+00 1.4781520642394246e+00 1.5567140648094280e+00 0 0 0
41 1 2.5028389222821246e+00 2.2100301744643884e+00 1.6247033575636409e+00 0 0 0
42 1 2.4076346797338530e+00 1.5143433190002089e+00 2.4235132899644416e+00 0 0 0
43 1 1.4966504322786587e+00 2.3630975355383210e+00 2.2435386603625234e+00 0 0 0
176 1 7.7971540880952850e-01 3.9947682464512164e+00 3.3201279377391311e+00 0 0 0
68 1 3.1503502271442243e+00 6.6103822599129747e-01 3.9895152939334468e+00 0 0 0
70 1 4.6722780045950291e-02 2.3911082436456241e+00 4.0045197749806949e+00 0 0 0
129 1 1.6710739953597900e+00 3.8802383862014858e+00 8.1458170374541994e-01 0 0 0
61 1 6.1807604410386574e-02 3.1270640135945440e+00 3.0734127917240386e+00 0 0 0
426 1 3.9201188220105103e+00 3.9226805602831960e+00 3.3366331184242481e+00 0 0 0
56 1 8.5443851831001894e-03 1.7206979943666378e+00 3.1507564548610052e+00 0 0 0
151 1 8.4487913400727122e-01 3.9981286233616125e+00 1.6209566544158100e+00 0 0 0
12 1 8.8748018497838377e-01 2.4324145461018345e+00 2.6402849092425740e-02 0 0 0
67 1 1.4375219200735583e+00 7.4281360396036333e-01 3.9371996128798168e+00 0 0 0
126 1 8.6015848552486118e-01 3.9684179114734390e+00 5.6035920271449768e-02 0 0 0
19 1 3.3009745008360190e+00 1.6575982909177700e+00 1.1705945139656038e-01 0 0 0
23 1 1.6305110418234618e+00 3.2000982984448467e+00 4.5742523988213435e-02 0 0 0
2 1 6.5206291187226517e-01 9.6812221270019494e-01 6.3287764615029829e-02 0 0 0
5 1 1.5249478847864140e+00 4.3849025078529481e-02 7.5033836123736819e-02 0 0 0
89 1 3.5347174951231963e-02 2.4162710581227502e+00 5.6605711923555644e+00 0 0 0
121 1 4.1805267489914755e-02 3.1800373844177932e+00 6.4832716310724097e+00 0 0 0
229 1 1.5931149393437778e+00 3.9632252164274950e+00 7.2784451888523183e+00 0 0 0
96 1 8.3634460886873541e-02 3.2266110103526700e+00 4.7301028829947516e+00 0 0 0
75 1 2.4104244231991352e+00 3.2545881200154847e+00 4.0482436388459488e+00 0 0 0
226 1 8.6672803227938267e-01 3.9492603163463542e+00 6.4278187931193482e+00 0 0 0
125 1 3.1496828334231419e+00 3.1730327857628353e+00 6.3094595089752277e+00 0 0 0
79 1 1.4786194323194835e-02 9.2461222859903358e-01 5.5865543707359295e+00 0 0 0
16 1 2.4209177739806753e+00 2.4092549938766168e+00 7.9536246047930712e+00 0 0 -1
337 1 3.9929678793460170e+00 1.6268132054381039e+00 5.6241663979784366e+00 0 0 0
74 1 9.6349662460698959e-01 3.1571444035984277e+00 4.0702412506124288e+00 0 0 0
115 1 1.5340012317214433e+00 1.5260173518868270e+00 6.3007690590622349e+00 0 0 0
124 1 2.4852047189190425e+00 3.2471234274304734e+00 7.1107938724156945e+00 0 0 0
77 1 7.0231597406933144e-01 8.8343080414640351e-01 4.8013401651383099e+00 0 0 0
120 1 3.3106267236255249e+00 2.4655617787230977e+00 7.1237781353675507e+00 0 0 0
123 1 1.6654920370181512e+00 3.2396901828500675e+00 6.4260473498808075e+00 0 0 0
80 1 1.2814136979026522e+00 1.3313719203704721e-02 4.6680915660740805e+00 0 0 0
81 1 2.4084464708859326e+00 7.4322929874281940e-01 4.6575018408194238e+00 0 0 0
110 1 3.2194207984826892e+00 8.7769267475477963e-01 7.2948537519788577e+00 0 0 0
83 1 1.5936008979962217e+00 7.2268795336713187e-01 5.4487400005200133e+00 0 0 0
118 1 1.6246691734679481e+00 2.3889043662331400e+00 7.3282966200075874e+00 0 0 0
85 1 3.1836742970057723e+00 7.1177307767778486e-01 5.4993655841691771e+00 0 0 0
122 1 8.3855092610182858e-01 3.1063193335658421e+00 7.1760126085881240e+00 0 0 0
87 1 8.3142085142431077e-01 2.3838248506975228e+00 4.8032475078050316e+00 0 0 0
88 1 8.7129889135648431e-01 1.7166679348238678e+00 5.5586728441318449e+00 0 0 0
112 1 9.0617403196804025e-01 2.4279359768680129e+00 6.3611466281653151e+00 0 0 0
90 1 1.6116279589506639e+00 1.6083584040819863e+00 4.8452440891248401e+00 0 0 0
91 1 2.4671486894443437e+00 2.3677347447340784e+00 4.7536969128890556e+00 0 0 0
92 1 2.4253908527464905e+00 1.5589530143204673e+00 5.5910751327237307e+00 0 0 0
93 1 1.7091758176922958e+00 2.3492295378301962e+00 5.4977105608200825e+00 0 0 0
94 1 3.2947357381625975e+00 1.4999847192128155e+00 4.7394131588700183e+00 0 0 0
95 1 3.1102318582606325e+00 2.3569888656926983e+00 5.5485777413317985e+00 0 0 0
113 1 7.9546738191717703e-01 1.6904575298649953e+00 7.1397366277323107e+00 0 0 0
97 1 7.8498118353806123e-01 3.2737659410131323e+00 5.6622027494709073e+00 0 0 0
98 1 1.5181446556189844e+00 3.1706457426536447e+00 4.8840071499033249e+00 0 0 0
99 1 2.3513632060976946e+00 3.1689299680204308e+00 5.5161672673045992e+00 0 0 0
100 1 3.3516055754310505e+00 3.1206183449644764e+00 4.7829446852286424e+00 0 0 0
117 1 2.4644451814323638e+00 1.5018834096186136e+00 7.1916425859180020e+00 0 0 0
102 1 7.7401650097105512e-01 8.3762360660084045e-01 6.3281309071149279e+00 0 0 0
116 1 2.2723474712228646e+00 2.2791273756412767e+00 6.4417266253683412e+00 0 0 0
108 1 1.5058023407429342e+00 8.1111144989359452e-01 7.1548253254497558e+00 0 0 0
119 1 3.3043842885528649e+00 1.5304793772607972e+00 6.4581957688934803e+00 0 0 0
106 1 2.5501704812688994e+00 7.0232780748249080e-01 6.4080364602724948e+00 0 0 0
111 1 2.1268857143206393e-01 1.6679358840547629e+00 6.4064832278999067e+00 0 0 0
346 1 3.9942012757750436e+00 3.2435838792100777e+00 5.5824045535204538e+00 0 0 0
205 1 3.2805476849383850e+00 3.9695240375837471e+00 5.4655026793264634e+00 0 0 0
104 1 9.7306109308144428e-02 8.8282226881290371e-01 7.2158833579913262e+00 0 0 0
326 1 3.9424428019831113e+00 5.5162904375217237e-01 4.8333295917268240e+00 0 0 0
203 1 2.3708301947834327e+00 4.0033504529896256e+00 4.7636679617978777e+00 0 0 0
72 1 1.6862021438337198e+00 2.4442553617877474e+00 4.1600281872783391e+00 0 0 0
227 1 1.8718595457341536e-01 3.8651997182892521e+00 7.2748271367594981e+00 0 0 0
69 1 8.5327698821649356e-01 1.6687785551462777e+00 4.0610302134420166e+00 0 0 0
362 1 3.9825469701567004e+00 1.5991279195987764e+00 7.2328637229939439e+00 0 0 0
114 1 5.6193325261189642e-02 2.4266277013116779e+00 7.2867243733018636e+00 0 0 0
327 1 3.9960115136828764e+00 4.0561677410266839e-04 5.7666584797128948e+00 0 0 0
105 1 1.5354497533000726e+00 1.6516639700356262e-02 6.2730843008341388e+00 0 0 0
190 1 3.1512155943180247e+00 4.0042548212472564e+00 4.0730565410760136e+00 0 0 0
6 1 2.3624602570461914e+00 6.8548302958932306e-01 7.9274379489945304e+00 0 0 -1
189 1 1.5958933397302604e+00 3.8864156037710744e+00 4.0248097738655364e+00 0 0 0
82 1 2.3362216015178801e+00 5.3518219578680970e-03 5.4774963925140208e+00 0 0 0
65 1 6.6602312861968826e-02 9.8159386305102025e-01 4.0465913844758266e+00 0 0 0
9 1 3.2115008927791044e+00 3.3396629245771456e-02 7.9240845870627767e+00 0 0 -1
15 1 1.6123410850746578e+00 1.5408634479032022e+00 7.9453020074471823e+00 0 0 -1
376 1 3.9491999047139776e+00 3.9408735766107448e+00 7.9742971860142573e+00 0 0 -1
71 1 2.3771624819689952e+00 1.5001054974004067e+00 4.0370725697438195e+00 0 0 0
128 1 2.5451454766568582e+00 3.8546858857915027e+00 7.9822738993288365e+00 0 0 -1
407 1 3.9513800017597549e+00 4.8060566485649252e+00 2.3496903423044975e+00 0 0 0
153 1 2.4784790427033245e+00 4.0776091253646518e+00 1.5484773823731879e+00 0 0 0
155 1 3.1884862136841257e+00 4.1060244872147464e+00 2.4869866784259402e+00 0 0 0
134 1 7.6891742914487082e-02 5.4559591244750356e+00 7.6952751913144557e-01 0 0 0
392 1 3.9611401155509696e+00 6.4682329979158553e+00 8.5911974052755924e-01 0 0 0
187 1 3.2050829837306214e+00 6.4225984718353173e+00 3.1736461306544141e+00 0 0 0
32 1 2.2878998464603453e+00 7.9008131952874789e+00 2.4268867475037021e+00 0 -1 0
133 1 8.3254271851810580e-01 4.7623222141055903e+00 7.6975774502324945e-01 0 0 0
186 1 2.3565904885430462e+00 7.1674798057481643e+00 3.2089442796381635e+00 0 0 0
252 1 3.9595971872639657e+00 8.0010323117664726e+00 8.0658059221528544e-01 0 -1 0
127 1 4.2516607577052667e-02 4.1395502117475713e+00 7.5878399304797506e-01 0 0 0
137 1 2.3991901295776734e+00 4.8749066580601266e+00 7.7913155418714686e-01 0 0 0
138 1 1.7278953852978540e+00 5.6717246922890450e+00 6.4423586551250334e-01 0 0 0
200 1 3.1796069160116307e+00 7.0664186023010220e+00 3.9644907222280663e+00 0 0 0
140 1 3.3726880926749367e+00 5.5924260630326144e+00 7.1150083270262288e-01 0 0 0
171 1 2.3684282551025508e+00 7.1169298631452191e+00 1.6951256667440673e+00 0 0 0
434 1 3.9717413817150753e+00 7.1847126033121569e+00 3.1795980070243393e+00 0 0 0
143 1 6.9510753455928787e-01 6.4086945400498720e+00 7.4694961455360209e-01 0 0 0
185 1 1.3819831147193156e+00 6.4372930221996674e+00 3.3228858733234734e+00 0 0 0
30 1 1.5262424813011488e+00 7.8162321983672083e+00 1.7213773763877762e+00 0 -1 0
174 1 3.2059107603227059e+00 6.2451715072632190e+00 1.5969087696306696e+00 0 0 0
147 1 2.4674101095382523e+00 6.4499164137695359e+00 8.3783680572129682e-01 0 0 0
148 1 1.5442946570869940e+00 7.2313436581151755e+00 7.6454331461072023e-01 0 0 0
173 1 1.5897954764734890e+00 7.1268182937393920e+00 2.5476543961938001e+00 0 0 0
150 1 3.2448967872311050e+00 7.2234422853552900e+00 1.0495783778918937e+00 0 0 0
191 1 8.3680937207882311e-01 4.9366793118983958e+00 3.9730809025610601e+00 0 0 0
172 1 2.5503279002556432e+00 6.3377938876412587e+00 2.4390949112077278e+00 0 0 0
181 1 2.2935547187258329e+00 5.5808620476687558e+00 3.2745890869345233e+00 0 0 0
175 1 3.3123509101272184e+00 7.1906082137841247e+00 2.3152905802526460e+00 0 0 0
179 1 7.5998636806485120e-01 5.6301971831142206e+00 3.2050481412123903e+00 0 0 0
182 1 3.1557421375050714e+00 4.8284514910764145e+00 3.1874822169699213e+00 0 0 0
157 1 7.3998689494123016e-01 5.4646785318339273e+00 1.6064210537299131e+00 0 0 0
158 1 7.0850850529409115e-01 4.8180985407611034e+00 2.5126268061281727e+00 0 0 0
180 1 1.5446068156662967e+00 4.7179751234181095e+00 3.2490438737533243e+00 0 0 0
160 1 1.5449018836479937e+00 4.7595524812655396e+00 1.5022132985742975e+00 0 0 0
161 1 2.4949319569862984e+00 5.5513325853108277e+00 1.5805290191532622e+00 0 0 0
162 1 2.3485423541664816e+00 4.9045375894029615e+00 2.3898860460146651e+00 0 0 0
163 1 1.6360555721167767e+00 5.6795944161167364e+00 2.3397925417142691e+00 0 0 0
164 1 3.2712280123584327e+00 4.7703785314229199e+00 1.5703845001057535e+00 0 0 0
165 1 3.1581374156572877e+00 5.5376450642663571e+00 2.4163730287185685e+00 0 0 0
3 1 5.3606372888845077e-01 7.8480668747114688e+00 7.7136337865308391e-01 0 -1 0
167 1 7.9987978623199718e-01 7.0325512199059137e+00 1.5840580321816777e+00 0 0 0
168 1 7.1478197445256453e-01 6.3818448742164913e+00 2.3729897065944718e+00 0 0 0
184 1 6.8688023493729888e-01 7.2143434268044375e+00 3.0593073616631470e+00 0 0 0
170 1 1.5624830134635017e+00 6.2918983413180687e+00 1.5048806157124874e+00 0 0 0
53 1 1.5172142871509631e+00 7.9172590044394262e+00 3.1342173387602221e+00 0 -1 0
142 1 8.2396335771040219e-01 7.1725638878720748e+00 3.1618239270772244e-02 0 0 0
26 1 1.5099987075438932e-02 7.9960870807902458e+00 1.7063018438358331e+00 0 -1 0
429 1 3.9477466713750915e+00 5.6631201109872675e+00 3.1420811526154857e+00 0 0 0
178 1 5.4984929192869458e-05 4.7870709318522726e+00 3.3479897573701192e+00 0 0 0
313 1 3.9459303422832748e+00 7.8629491644131093e+00 4.0040802373595135e+00 0 -1 0
130 1 3.1622633726949312e+00 4.0055837400627929e+00 7.6609615702719758e-01 0 0 0
441 1 3.9197635368925328e+00 4.7943621229906190e+00 3.8910729051887887e+00 0 0 0
66 1 2.1634644926223654e+00 7.9795080454075258e+00 3.9862543578157226e+00 0 -1 0
154 1 1.6129237597507415e+00 4.1173505768630472e+00 2.3267473995711110e+00 0 0 0
55 1 3.1252779096553240e+00 7.9400654220663229e+00 3.2371799717662801e+00 0 -1 0
7 1 2.3117356933285023e+00 8.0022488212405385e+00 7.1268369409227039e-01 0 -1 0
277 1 3.9461414913364039e+00 7.9835997163945374e+00 2.5051623949500690e+00 0 -1 0
136 1 2.4672663857185864e+00 5.6062909240526020e+00 1.3326187365443332e-03 0 0 0
132 1 8.5074112861030859e-01 5.5733258634129275e+00 2.2373631059640076e-02 0 0 0
135 1 1.6385161181199133e+00 4.6659304686492336e+00 8.5319260945359687e-02 0 0 0
391 1 3.8843397130263169e+00 7.2803797410094706e+00 1.1627991306254160e-01 0 0 0
149 1 3.1485233311969201e+00 6.4681433107608148e+00 1.3988860414023918e-01 0 0 0
195 1 3.1922925698985516e+00 5.6108445400351217e+00 3.9762943689617742e+00 0 0 0
193 1 2.2529252349292870e+00 4.7248621427929391e+00 4.0029851332801218e+00 0 0 0
245 1 1.5504908936378661e+00 6.3442073058427360e+00 6.4255820683657525e+00 0 0 0
109 1 3.2258726507806448e+00 7.9020279648467993e+00 6.4610044270571878e+00 0 -1 0
202 1 6.7493769284665106e-02 4.1076690145515453e+00 5.7417196934896015e+00 0 0 0
241 1 2.1317840491053185e-02 6.3685622080161064e+00 6.4186274159299650e+00 0 0 0
234 1 6.6188582973696047e-03 5.5411833938636352e+00 7.1938340278312607e+00 0 0 0
239 1 3.3260783838806587e+00 4.8346885348666824e+00 6.3027644029108938e+00 0 0 0
76 1 1.5225004198948176e-02 7.9380509126591399e+00 4.8110465445733261e+00 0 -1 0
206 1 3.1430398944933921e-02 4.7816437690629865e+00 4.7297255425860874e+00 0 0 0
219 1 2.3878512142040655e-02 7.2250596192305405e+00 5.6965782681262800e+00 0 0 0
84 1 3.1173061667063902e+00 7.9857376387431849e+00 4.7789109197320068e+00 0 -1 0
198 1 2.4390927617156133e+00 6.4382104088262917e+00 4.0305374464403094e+00 0 0 0
492 1 3.8316424318292874e+00 6.5291323920115678e+00 7.3747420502852945e+00 0 0 0
228 1 2.4518235659526151e+00 4.0272977569064992e+00 6.3258605988430805e+00 0 0 0
240 1 3.2526025642150649e+00 5.5121692729699525e+00 7.2067717689161936e+00 0 0 0
236 1 2.5317360501787571e+00 5.5179877469024818e+00 6.4895957079726250e+00 0 0 0
237 1 2.5142525311915076e+00 4.6913636766624549e+00 7.2574769902767136e+00 0 0 0
246 1 2.2780280472529175e+00 7.0683727491799466e+00 6.2842906714354614e+00 0 0 0
235 1 1.6558354128920467e+00 4.9065054051538448e+00 6.3797472715854768e+00 0 0 0
250 1 3.1621876720089346e+00 7.2395292906572273e+00 7.1919555318864248e+00 0 0 0
207 1 7.6595800206882236e-01 5.5436509097239872e+00 4.8690298360955877e+00 0 0 0
208 1 8.6078444004438093e-01 4.7621264606434046e+00 5.5726883770456315e+00 0 0 0
249 1 3.2176790751170632e+00 6.5789800653197856e+00 6.3548989331625476e+00 0 0 0
210 1 1.6539523868262005e+00 4.8020671750374619e+00 4.8565974712567321e+00 0 0 0
211 1 2.5152326753701733e+00 5.6625263708599958e+00 4.7244604812005404e+00 0 0 0
212 1 2.4206887461672233e+00 4.8336529049419212e+00 5.5799121445107289e+00 0 0 0
213 1 1.8281829677253854e+00 5.7406352775577192e+00 5.6429421425763069e+00 0 0 0
214 1 3.0759080241728531e+00 4.8253586866566582e+00 4.6809208631079651e+00 0 0 0
215 1 3.2606340102968998e+00 5.5407747983195001e+00 5.5772352918270833e+00 0 0 0
481 1 3.8922755812962939e+00 5.8117173995397007e+00 6.4929910397483948e+00 0 0 0
217 1 7.2974666500341301e-01 7.1457251101204946e+00 4.8618694408431029e+00 0 0 0
218 1 7.6007563012504464e-01 6.2970242520933333e+00 5.7294561463864753e+00 0 0 0
233 1 9.5591616867477447e-01 4.8405140216860643e+00 7.2085082276557966e+00 0 0 0
220 1 1.6700943182188548e+00 6.3587891858257954e+00 4.8193409629212711e+00 0 0 0
221 1 2.4544181443751554e+00 7.2165107975073557e+00 4.7967612694933504e+00 0 0 0
222 1 2.5913797002768484e+00 6.3636464603712941e+00 5.5832000170753178e+00 0 0 0
223 1 1.5525469260074463e+00 7.0662206963060612e+00 5.5539159248931220e+00 0 0 0
224 1 3.3791122431557472e+00 6.3096757142229327e+00 4.8594123521716650e+00 0 0 0
225 1 3.2764828953474239e+00 7.2557729204892718e+00 5.5473526321410631e+00 0 0 0
247 1 2.3443724501105834e+00 6.3410245616624419e+00 7.1728955987133114e+00 0 0 0
243 1 7.5337257716901662e-01 6.3759571351012774e+00 7.2805732343664946e+00 0 0 0
248 1 1.6531874825412871e+00 7.1734792920930737e+00 7.1502725876085940e+00 0 0 0
242 1 8.7791736829968725e-01 7.1477282183933593e+00 6.3644284574252339e+00 0 0 0
238 1 1.6259803496668832e+00 5.5680031898610132e+00 7.1631825383440608e+00 0 0 0
232 1 8.5260172536903389e-01 5.5022058154483258e+00 6.3587546234541668e+00 0 0 0
194 1 1.6000655815617624e+00 5.5792304697874817e+00 4.0925916796298196e+00 0 0 0
146 1 2.4170716988838912e+00 7.3648376911815499e+00 7.9162205530929759e+00 0 0 -1
216 1 1.4421214926504246e-03 6.4504492279712178e+00 4.8184028553351155e+00 0 0 0
244 1 1.6227633827280079e-02 7.2098094954151497e+00 7.2362275326721708e+00 0 0 0
230 1 3.2768091085163968e+00 4.1020770340798638e+00 7.0410570750192534e+00 0 0 0
103 1 8.4434453761280392e-01 7.9236338230443710e+00 7.0690000557131203e+00 0 -1 0
201 1 8.0202293417246751e-01 4.1450042433222674e+00 4.6618544852006654e+00 0 0 0
107 1 2.3389213988338997e+00 7.9811650356480692e+00 7.0971079801187873e+00 0 -1 0
78 1 7.1264165841309790e-01 7.9702643263488104e+00 5.6235357068267398e+00 0 -1 0
204 1 1.6874476101887270e+00 4.0455512265307254e+00 5.5061712860607308e+00 0 0 0
199 1 1.5460486940825569e+00 7.1012719285806005e+00 4.0860859564532834e+00 0 0 0
145 1 1.6851732188212025e+00 6.5290399527151548e+00 7.9639999927816598e+00 0 0 -1
196 1 6.7341985137403981e-01 6.3529807044521549e+00 4.0440010589943940e+00 0 0 0
139 1 3.2355955310228643e+00 4.7659958614938862e+00 7.9733619947445176e+00 0 0 -1
312 1 6.3403176166376216e+00 3.1425676952114339e+00 3.2451489829956821e+00 0 0 0
29 1 7.9596539406359748e+00 8.2702131693910452e-01 2.3689153437468740e+00 -1 0 0
378 1 4.8750880488595811e+00 3.9654618638901158e+00 8.5469852777833932e-01 0 0 0
259 1 7.3191212768011935e+00 2.0899847223141421e-03 8.7056393117789810e-01 0 0 0
302 1 4.6620054941667970e+00 4.2938430826220397e-02 3.2059003229953618e+00 0 0 0
256 1 4.8063177007364972e+00 8.9488721052718356e-01 9.3939239404377872e-01 0 0 0
304 1 6.5737871573274012e+00 6.2064975871932049e-02 3.2336428021915498e+00 0 0 0
1 1 7.8524551609210036e+00 1.8388893958508312e-01 2.6887831845336239e-02 -1 0 0
276 1 4.0733021732567618e+00 8.0329625562962592e-01 1.6414900291909946e+00 0 0 0
260 1 6.4698113641421546e+00 7.4022821956353346e-01 8.3726454448961796e-01 0 0 0
280 1 5.6266500348322754e+00 8.3184467787503991e-02 2.4136174434339166e+00 0 0 0
311 1 4.8142767938464894e+00 3.3375169869208605e+00 3.2047213656062774e+00 0 0 0
428 1 7.1194478738684879e+00 3.9342669762911875e+00 3.0756176970776878e+00 0 0 0
307 1 4.8124547556365407e+00 1.7299469780742252e+00 3.3500962806273877e+00 0 0 0
265 1 5.5018500215266037e+00 1.7593344451921877e+00 7.4639709745840832e-01 0 0 0
266 1 4.6882335830999518e+00 2.3824154061631817e+00 7.7108502014614788e-01 0 0 0
309 1 6.3124614701202066e+00 1.5550212479338583e+00 3.3059936807125467e+00 0 0 0
298 1 5.5649004543091944e+00 3.3081376824891384e+00 2.4778686891891484e+00 0 0 0
269 1 7.1894893560996840e+00 1.5147972080852790e+00 9.3730543463528926e-01 0 0 0
270 1 6.3959702674029435e+00 2.4784200519751480e+00 8.2256803544676937e-01 0 0 0
152 1 7.8549427288118290e+00 3.9913669272682841e+00 2.3637115574615626e+00 -1 0 0
278 1 4.7762069737363424e+00 1.3308117714355383e-01 1.6575919323175106e+00 0 0 0
273 1 5.5906875176599717e+00 3.1631016020752836e+00 6.9728809420281890e-01 0 0 0
305 1 7.1625084749603580e+00 9.0495466287568471e-01 3.1551924962625888e+00 0 0 0
275 1 7.1278089727909117e+00 3.2294439532019812e+00 7.5729074929154083e-01 0 0 0
300 1 7.1851798026642744e+00 3.1619142085888616e+00 2.3769722931883055e+00 0 0 0
299 1 6.3329128755995638e+00 3.1426473320693136e+00 1.6113275123658728e+00 0 0 0
297 1 4.8452426111537861e+00 3.2212073270412676e+00 1.6853850530468546e+00 0 0 0
279 1 5.5970852865054521e+00 8.1918894334742132e-01 1.5692661234167020e+00 0 0 0
308 1 5.6411454580201914e+00 2.3976076180683399e+00 3.2242748770091021e+00 0 0 0
281 1 4.8393748021514620e+00 8.9887109645042118e-01 2.5161150770686751e+00 0 0 0
11 1 7.8867207363798322e+00 1.7011009179051089e+00 6.6890197549465277e-02 -1 0 0
283 1 7.1894909280751751e+00 7.9790631260813527e-01 1.6800475250092930e+00 0 0 0
295 1 6.3059961571305641e+00 2.3766817464370038e+00 2.3631906993123128e+00 0 0 0
285 1 6.3411097772724832e+00 1.0048593752883384e+00 2.3566796867089854e+00 0 0 0
310 1 7.1900816635840750e+00 2.3835193958861014e+00 3.2175649621404552e+00 0 0 0
303 1 5.5431329699461882e+00 6.1611353346534625e-01 3.3279486933749243e+00 0 0 0
288 1 4.8226970370126470e+00 1.6400235507644745e+00 1.7153939884906770e+00 0 0 0
289 1 5.5437457868480777e+00 2.4876185520632403e+00 1.6975352789964355e+00 0 0 0
290 1 5.5520026128776960e+00 1.5712689806457592e+00 2.3905444116519168e+00 0 0 0
291 1 4.7590306975939827e+00 2.5304253164947634e+00 2.4729528345344498e+00 0 0 0
292 1 6.2876436039643151e+00 1.6489730896569712e+00 1.5796026262352407e+00 0 0 0
293 1 7.1897414747166151e+00 2.3618711454423713e+00 1.6081532371348708e+00 0 0 0
294 1 7.1628832888667873e+00 1.6245110024782268e+00 2.4068010738197989e+00 0 0 0
286 1 4.0422405288727496e+00 2.4558694144760360e+00 1.6085374924348068e+00 0 0 0
306 1 4.0800974938642005e+00 2.4003185491142860e+00 3.2875836401232412e+00 0 0 0
271 1 4.0185025765909925e+00 3.2250751217729525e+00 7.9802960858828209e-01 0 0 0
21 1 7.9788966115056894e+00 3.2261622324323205e+00 3.4138658047070593e-02 -1 0 0
46 1 7.9510273873563273e+00 3.2425059582452151e+00 1.6481409423066316e+00 -1 0 0
36 1 7.9380575029142006e+00 1.5926383958121124e+00 1.6276239455566439e+00 -1 0 0
4 1 8.0009736207425064e+00 8.5370948746248987e-01 9.4405365389861051e-01 -1 0 0
282 1 6.3025472698553493e+00 8.2134377262400148e-03 1.5990634678103559e+00 0 0 0
51 1 7.7932168557503347e+00 1.6303716601507645e-02 3.0562882638522937e+00 -1 0 0
380 1 6.2941780477185532e+00 3.9172750148759579e+00 8.4344696551835940e-01 0 0 0
262 1 4.0184324651268586e+00 1.6577472430731588e+00 9.2678830579129012e-01 0 0 0
405 1 6.3776993913234357e+00 3.9453277137570422e+00 2.4594783118535171e+00 0 0 0
14 1 7.9830810785776150e+00 2.4982909662562096e+00 8.5193146668566677e-01 -1 0 0
325 1 7.1587603858726725e+00 3.1414213934101229e+00 3.9983472237955544e+00 0 0 0
323 1 4.0545271789005994e+00 3.2201319594062134e+00 3.9913149634696548e+00 0 0 0
254 1 5.5352949557516462e+00 7.5242682034678254e-01 4.6875527961933727e-02 0 0 0
320 1 4.8201563008067039e+00 2.5589249794521782e+00 3.9840176590089702e+00 0 0 0
316 1 7.3623771243088658e+00 4.4799577962788106e-02 3.9748869840606673e+00 0 0 0
267 1 6.4469711131132215e+00 1.7135087483079543e+00 1.4036919211333476e-01 0 0 0
188 1 7.8842692063937214e+00 3.9435218116358590e+00 3.9102301694104362e+00 -1 0 0
479 1 7.3420046411134816e+00 4.0000414647671372e+00 6.5389869110609737e+00 0 0 0
257 1 6.4305652050328765e+00 1.1682101747845818e-01 8.0008386283000590e+00 0 0 -1
357 1 6.3169251389340069e+00 4.5329392841768623e-02 6.3816699689385121e+00 0 0 0
263 1 4.7135952799574437e+00 1.6627163281797441e+00 7.9514144323086668e+00 0 0 -1
440 1 6.4306744084357863e+00 3.9672694412851541e+00 4.1110867164774527e+00 0 0 0
375 1 7.2451189061434995e+00 3.2564629172198445e+00 7.2324765517987251e+00 0 0 0
476 1 4.0801980229209738e+00 3.9589830485340167e+00 6.2833853329820464e+00 0 0 0
371 1 4.0559264499234464e+00 3.2522804312088649e+00 7.1890481436754685e+00 0 0 0
353 1 4.8314349816504523e+00 7.4542814807934010e-02 6.4409576535751878e+00 0 0 0
322 1 6.3654906922837808e+00 2.2643634515158415e+00 4.0126715433151121e+00 0 0 0
359 1 7.1896603260715137e+00 9.9063488866644178e-02 7.1890038608519262e+00 0 0 0
332 1 6.4456847086504911e+00 5.3096977982624576e-02 4.8467057759720555e+00 0 0 0
370 1 6.4898682314211626e+00 2.3515053808372737e+00 7.1248521916020771e+00 0 0 0
360 1 6.4943868772453097e+00 8.2762214188166572e-01 7.1548248836595993e+00 0 0 0
374 1 6.5300465744371197e+00 3.2768570996980593e+00 6.4529627697600223e+00 0 0 0
363 1 4.6648704192409642e+00 1.6791791532932279e+00 6.4231312602625641e+00 0 0 0
329 1 5.6640911705894377e+00 8.2626670640155053e-01 4.8934294315555737e+00 0 0 0
369 1 7.2095225097269626e+00 1.5869776863470251e+00 7.2200060964189605e+00 0 0 0
331 1 4.7571432324439371e+00 7.0200177158430421e-01 5.6343036351531088e+00 0 0 0
274 1 6.3816172223039143e+00 3.2130481137539375e+00 7.9323650737132452e+00 0 0 -1
333 1 7.2669587216975238e+00 9.0485759256989939e-01 4.8073911980034731e+00 0 0 0
358 1 7.4040304414794464e+00 8.8603020435420887e-01 6.4774320140345276e+00 0 0 0
335 1 6.5905945605059539e+00 8.5988669120093209e-01 5.6174504119673321e+00 0 0 0
373 1 5.6787061699306696e+00 3.2016698523921701e+00 7.2345629747989300e+00 0 0 0
368 1 7.2637332805638639e+00 2.4114722620495677e+00 6.4886947807882143e+00 0 0 0
338 1 4.8987659557472414e+00 1.4654315783781935e+00 4.7853346968906028e+00 0 0 0
339 1 5.6510534306208982e+00 2.3468244324512955e+00 4.8052136080316634e+00 0 0 0
340 1 5.4650233170672680e+00 1.6015712351762517e+00 5.7157837232832005e+00 0 0 0
341 1 4.8323416425017838e+00 2.4109861207981780e+00 5.4929624787972218e+00 0 0 0
342 1 6.4875361664425037e+00 1.5217180100296015e+00 4.8247972317068948e+00 0 0 0
343 1 7.2244220568391677e+00 2.4285695903618878e+00 4.8492672674130981e+00 0 0 0
344 1 7.2502480502867845e+00 1.6405871739013846e+00 5.6439719916982787e+00 0 0 0
345 1 6.4655076645392349e+00 2.4122459854824134e+00 5.6630788402302334e+00 0 0 0
334 1 7.2328178412462973e+00 4.4568603796251272e-02 5.6555077555867612e+00 0 0 0
347 1 4.7946947204511705e+00 3.2135670219649950e+00 4.8925051076529211e+00 0 0 0
348 1 5.7002151134950312e+00 3.1708328153248053e+00 5.5735254372918792e+00 0 0 0
349 1 6.4516820736503133e+00 3.2081575475548640e+00 4.7817795388358917e+00 0 0 0
350 1 7.2692101721969395e+00 3.2834811972961413e+00 5.8094601589127253e+00 0 0 0
365 1 5.6030409585228735e+00 1.5336563326048593e+00 7.3468026842249365e+00 0 0 0
372 1 4.8591959874015389e+00 3.2183046196043184e+00 6.4425945612863815e+00 0 0 0
367 1 6.5152361580262612e+00 1.5648812050339669e+00 6.3681314667371822e+00 0 0 0
354 1 5.6355137789820322e+00 8.7707860777966995e-01 6.4241731261929722e+00 0 0 0
364 1 5.6386507740126479e+00 2.3418411074595502e+00 6.4908296821692009e+00 0 0 0
356 1 4.7427675912878318e+00 8.2417497478911583e-01 7.2820178497055092e+00 0 0 0
366 1 4.8710270281175720e+00 2.5140858256602896e+00 7.1705632921273041e+00 0 0 0
361 1 4.0516223764418235e+00 2.3957151930991634e+00 6.2171245983155776e+00 0 0 0
452 1 5.5945697184307095e+00 3.9800222550300934e+00 4.6567130759617203e+00 0 0 0
317 1 6.5258983809592905e+00 7.9978838217419912e-01 4.1086443276061200e+00 0 0 0
454 1 7.3077017859172422e+00 3.9288771533762601e+00 4.8902365041002600e+00 0 0 0
86 1 8.0007301176310790e+00 1.7183222447702491e+00 4.8449365038939165e+00 -1 0 0
351 1 4.0149241398060020e+00 7.5876568980409698e-01 6.4160314733831330e+00 0 0 0
101 1 7.9605603618857490e+00 1.9306025119179851e-02 6.4054626210470005e+00 -1 0 0
336 1 4.0155933127225891e+00 2.3894677027993434e+00 4.7376009243084694e+00 0 0 0
319 1 5.6018595781562768e+00 1.4863824313658180e+00 4.0714244048461072e+00 0 0 0
453 1 4.9729873404820140e+00 3.9332945290587835e+00 5.6100851496736688e+00 0 0 0
330 1 5.5855652525953268e+00 1.0004012204900933e-01 5.6016212685507529e+00 0 0 0