LAMMPS data file via write_data, version 16 Mar 2018, timestep = 1100000

8000 atoms
1 atom types

7.1254560277943284e+00 4.6428350365604430e+01 xlo xhi
-6.0693456179720187e+00 5.9598957329643987e+01 ylo yhi
-2.6292186571886589e-01 5.3753426531118194e+01 zlo zhi

Masses

1 28.0855

Atoms # atomic

5015 1 1.1446861838604793e+01 2.5553996629390330e-01 2.6135572805752791e+01 -1 4 -2
392 1 1.3800044489733637e+01 -4.4318842745300513e+00 2.6634000052387726e+01 -4 0 3
7029 1 1.3732648034726427e+01 -3.7738769266551802e+00 1.5677206155790975e+00 -1 0 -1
2892 1 8.0763196220957667e+00 -5.0781049730814400e+00 1.6454682152329785e+00 4 4 -4
2814 1 2.1283739091487838e+01 -4.4800877776791008e+00 5.9197102507821842e-01 -2 1 2
3729 1 2.4973819038302857e+01 6.0741809423293596e+00 1.5289166113761970e+01 -7 6 2
1877 1 2.6516001887555056e+01 1.8336513224261326e+00 3.9571451134462476e-01 5 2 1
6181 1 9.0878103481586496e+00 -4.7210076444931790e+00 2.3087495210586816e+01 -7 5 -1
3935 1 1.5412623003468827e+01 -5.6788933647749493e+00 1.4961558793800961e+01 2 0 3
4715 1 8.6822575914975655e+00 -1.4009463478860384e+00 2.7081478740579028e+00 -1 4 4
2760 1 2.0393494303547783e+01 -5.9512258016111055e+00 6.7098385976114265e+00 0 1 -2
1824 1 1.0901066175972561e+01 -3.2847076085320408e+00 2.3378569778685483e+00 5 -1 3
1236 1 1.8238864435779718e+01 9.6239883215074773e-01 1.8487618459352984e+00 2 -6 -3
7743 1 1.9326662419151887e+01 -3.3448567543644474e+00 1.5685537803633420e+00 1 0 -2
6153 1 2.1368993138974069e+01 -1.8190300107201560e+00 2.8599566897912783e+00 -5 2 3
5363 1 2.3806951425654372e+01 -1.3569666602582524e+00 1.8609979060985924e+00 -2 4 0
1592 1 9.6354162129375300e+00 2.1663444032772219e+00 1.5765065616478122e+00 -1 0 1
7060 1 1.1587782005712933e+01 6.1641016032015639e-01 1.5423598793831144e+00 7 1 -2
2985 1 8.7530061596791811e+00 9.1140354227641041e+00 2.4032463297370608e+01 2 -2 -1
1890 1 1.7099231484551609e+01 -2.8006434717708935e+00 3.3453852404453830e+00 3 1 4
2257 1 2.0817885024800077e+01 -1.0247188415642814e+00 1.8540908349018997e-01 1 -4 1
6436 1 7.5103842455177219e+00 1.0174191830823474e+01 1.9435476933713336e+01 4 2 4
7568 1 2.3308102751189406e+01 1.2868000530154138e+00 1.4343781606939128e+00 1 -1 1
7511 1 2.6225845783865520e+01 -3.7627427793052304e+00 1.5532368027421160e+01 5 -2 -5
5125 1 2.2972304002955752e+01 9.1083205172603865e+00 1.6506794388839985e+01 2 2 -1
6066 1 1.0903488071783610e+01 3.8911486231306878e+00 3.2837865346454977e+00 2 1 0
6415 1 1.1090402733736342e+01 7.0352632797791994e+00 2.0136405674272737e+00 -1 -1 1
314 1 1.2591427543877934e+01 3.1072351369277325e+00 1.0403415202006292e+00 1 -1 0
5137 1 1.8662276285640296e+01 6.0964441014683057e+00 1.2709498505096419e+00 1 1 5
3597 1 2.1809276904887476e+01 5.1772102052610638e+00 2.5197688602436821e+00 1 2 4
5201 1 2.3774977724226591e+01 3.4596080419189246e+00 2.1090069164397431e+00 1 -1 -2
4282 1 2.6703204517739721e+01 -2.2996227490271512e+00 1.3379793313087147e+01 3 -1 -4
12 1 9.9418518442851980e+00 -5.4202417222544392e+00 1.4275656974821910e+01 1 -3 -3
560 1 9.6567123831242476e+00 5.0833462227392960e+00 1.3394700378769271e+00 1 -1 1
7255 1 1.2571325964762664e+01 7.4045573124537452e+00 4.6017088695372301e+00 2 -1 0
5620 1 1.6349372812418110e+01 4.0702284373404236e+00 1.0552074944139933e+00 -5 -3 2
2126 1 2.0257365407118513e+01 7.0882716813323672e+00 3.1658321145423027e+00 5 -3 -7
4873 1 2.3503006414007373e+01 6.9008479542375891e+00 3.4938015980326775e+00 -4 -2 -2
668 1 1.3098748688449140e+01 -5.6469610957003411e+00 -1.7064811629295643e-01 -7 2 -1
3169 1 2.4645381969717743e+01 -2.3210695108616060e+00 2.4440755539890411e+01 1 -1 3
3142 1 1.2163972295098818e+01 9.0313647693008008e+00 6.9310795033513783e-01 5 1 -2
6297 1 1.4297233515070570e+01 7.9766300098087086e+00 2.5205135413348660e+00 0 2 -1
1995 1 1.6150202407341911e+01 6.5680251868417017e+00 1.7322050105395055e+00 2 -4 1
2409 1 2.1434167038804297e+01 8.8088014359568305e+00 1.7098740575423230e+00 -2 2 -2
3131 1 2.3437488502905595e+01 8.4798176178479920e+00 -7.5604726046453796e-02 -6 3 7
3494 1 2.4958270220590705e+01 6.6755914725485805e+00 1.3753157480754643e+00 2 -1 2
3024 1 8.8221457670918646e+00 -5.0438341915948044e+00 5.1349881836178755e+00 -4 -2 5
2559 1 1.3456649771091952e+01 -3.8034054890664701e+00 3.8875503136056881e+00 3 7 3
515 1 1.6261323922682969e+01 -4.4637747927253297e+00 1.9035710399912937e+00 3 2 3
2929 1 2.3599868898332563e+01 -3.8273386716751951e+00 6.2340185592049808e+00 2 5 -1
7132 1 2.2520085325492431e+01 6.0524292695103235e+00 3.1155063581296361e-01 6 0 3
6122 1 1.1106965707166063e+01 -1.3515214234883377e+00 4.0077389516703388e+00 5 10 -1
7523 1 1.2649025645721963e+01 -1.4711406751872103e+00 6.7183321467539003e-01 -4 0 -4
1214 1 1.3459196939340329e+01 -1.2092014484344533e+00 3.4327979422682846e+00 0 2 4
5876 1 1.7965755189418921e+01 -5.0876457505787496e+00 4.6635446310860811e+00 0 -3 6
4583 1 2.4248806797025253e+01 4.3193642653005568e+00 3.6563601593679051e-02 -4 1 0
7650 1 1.9570491407340121e+01 -2.8524858997809721e+00 4.6034103205499024e+00 0 3 2
3177 1 2.1906522323233613e+01 -4.1130302039091466e+00 2.9256675632889610e+00 2 -3 -2
2968 1 2.4749308341979290e+01 -1.6940669898230549e+00 4.9265124414543653e+00 -1 0 -2
7264 1 2.2511267054591166e+01 -2.3609843349462869e+00 -7.5571269048650275e-02 5 2 4
6353 1 8.4020083812917346e+00 7.6370794173154355e-01 3.6084458763132985e+00 3 4 4
1679 1 7.8695048644015291e+00 3.5168348304839352e+00 3.3951432511632591e+00 0 1 3
6975 1 1.5110966441013701e+01 6.4744416893226742e-02 2.3259671000601863e+00 3 -2 2
3103 1 1.9340458458362111e+01 -3.1647667038550154e-01 3.8711799665524005e+00 -4 4 2
7427 1 2.0970668557446110e+01 1.0647526724951977e+00 1.4951185476431785e+00 6 5 -1
5257 1 2.2314594263988809e+01 -1.1501104413937089e+00 4.8623609617887933e+00 -1 -3 4
2406 1 8.9114828208063752e+00 3.8311836728619681e+00 5.6617814555382138e+00 -4 4 -1
5254 1 1.3578250118727754e+01 1.9695313950204216e+00 3.0551010351098875e+00 -1 1 2
712 1 2.0366482094756194e+01 3.2861465137665125e+00 1.4449415720148311e+00 5 -3 -3
6381 1 2.1005883096323238e+01 4.7748569163706076e+00 4.7358713225185411e+00 -2 1 3
7550 1 2.4675711361466135e+01 3.8980880221900360e+00 5.0522105244264148e+00 -2 -3 -1
350 1 2.2375121820437187e+01 2.3602266154202241e+00 4.6620711569903186e+00 2 3 2
6753 1 2.6139479411416715e+01 1.8471776559011097e+00 2.7901936469421456e+00 0 -2 0
4434 1 7.9084129956153966e+00 6.2428466728451788e+00 2.2270050605616403e+00 4 -4 -2
2212 1 1.0025218278813185e+01 8.0664554717013743e+00 3.9079217978689984e+00 -1 0 5
3586 1 1.2583713375771280e+01 4.8366232538016831e+00 4.8721223355476031e+00 6 2 -1
5 1 1.4956695221936300e+01 4.1126869922150284e+00 3.0581537105854917e+00 10 -2 2
3059 1 1.3090672432341023e+01 5.6016609456961053e+00 1.9042699197391539e+00 3 -2 2
2311 1 1.6669707974279032e+01 2.2407626046408957e+00 3.4394760344605229e+00 0 4 5
6984 1 2.3017686256404467e+01 5.2819878081832368e+00 6.3769140368916322e+00 -2 4 4
5229 1 2.5426555058233959e+01 5.4086237515010094e+00 3.7387137383474691e+00 3 0 -2
3846 1 8.3666561267994197e+00 8.5043335638108370e+00 1.6302281885002285e+00 -1 -2 -2
4166 1 9.1668037139557050e+00 1.0038785076455717e+01 5.3244893252273826e+00 -1 5 -2
7498 1 8.8221371651907674e+00 -3.6287133734719998e+00 1.9319972417589216e+01 -3 4 1
3167 1 1.5165907844011262e+01 9.5292729484236336e+00 4.1234322503802465e+00 -3 0 1
636 1 1.7451101261196243e+01 9.8300553937449138e+00 4.6316982278647245e+00 -6 3 -2
5021 1 1.8077824979243971e+01 6.0564235838454685e+00 4.1506590098967076e+00 1 3 0
2387 1 2.1278023289249447e+01 9.3829829652663239e+00 4.6088084316827889e+00 1 0 -3
2509 1 2.3939471644183833e+01 9.3206298376193519e+00 2.8399500483834097e+00 5 -2 1
4271 1 1.8908817931650432e+01 8.7116524727620455e+00 2.4609544683609922e+01 -1 -1 -2
901 1 9.5579543648980163e+00 -3.1918269379245316e+00 6.4833775284109620e+00 2 0 -4
2193 1 2.1169496494049142e+01 9.5416008441197349e+00 2.3237307534124191e+01 -2 2 0
6985 1 1.1416584744444069e+01 -5.4939435054162304e+00 5.4518622807615813e+00 1 -1 2
600 1 1.3438219326476194e+01 -5.1557188388666093e+00 7.1084843410035852e+00 3 1 3
419 1 9.5839926764211718e+00 5.9397531541503650e+00 2.5349860529008353e+01 -2 1 -3
3360 1 1.9392545189406178e+01 -4.4160678306253800e+00 8.6771635518078902e+00 2 -3 -3
4807 1 7.6797271194550660e+00 6.4856232608797892e+00 2.2634430983906217e+01 -3 5 -2
3330 1 2.5474061924331323e+01 1.4394014824962431e+00 5.2688845888939211e+00 -7 1 1
1353 1 2.3043340405847470e+01 -5.8364251111951608e+00 7.5613647984644379e+00 0 3 0
3588 1 2.4949353679187436e+01 -5.2608300379684270e+00 4.8790151534727162e+00 9 1 0
7334 1 1.2091766533787343e+01 -2.9822729413521629e+00 5.7462160679000807e+00 -3 2 2
5486 1 9.7882039306285620e+00 -9.9268555296152972e-01 5.8461327033053978e+00 -5 -1 5
646 1 1.1993987872137446e+01 -9.7805126271162557e-02 7.4056965542739537e+00 -4 2 1
2005 1 1.3030821497202998e+01 5.4579418953672221e-01 5.4302837566230115e+00 2 1 -2
7907 1 1.8247493557428992e+01 -1.5266275868021992e+00 6.2933452709392101e+00 4 2 -3
1059 1 1.5458602296651824e+01 -1.7736736594294964e+00 4.8529805223380320e+00 3 -3 2
4113 1 2.0072941318441060e+01 1.9193111637225497e+00 4.0516662119354585e+00 3 2 0
6832 1 2.1314263480958758e+01 -3.5885129079797728e+00 6.3181282946450494e+00 -2 4 2
1724 1 2.4927051281518690e+01 -2.9795574652211583e+00 8.3944524472024415e+00 -1 4 0
1031 1 7.6761919486932575e+00 8.5146395272657838e-01 6.3187338235429662e+00 2 3 1
2566 1 9.6953279879455483e+00 1.3890265668045538e+00 7.6293099917769922e+00 0 0 -1
2741 1 1.0759702739953051e+01 1.0619963655432869e+00 4.0755485098625579e+00 -2 1 6
3403 1 1.5338674608830479e+01 6.8139393225193245e-02 6.4868158114488441e+00 0 0 1
3107 1 1.9868346342237302e+01 4.3897377107028390e-01 6.3659231328492059e+00 5 -4 6
5479 1 2.1705961973635937e+01 2.0751321015264566e+00 6.8548128589396304e+00 0 -2 2
530 1 2.3842699436986592e+01 6.3559900618374776e-01 3.7274917261489988e+00 2 -1 1
3790 1 1.8919266162748052e+01 -6.0343243493837395e+00 2.3866959636804825e+01 1 -1 -2
581 1 2.6587320417442967e+01 -4.8989513464680128e+00 3.0394656066943821e+00 1 -2 -1
1316 1 1.0994170358106430e+01 2.6613425598295137e+00 6.1873582288142259e+00 1 -2 1
1298 1 1.4055538776318542e+01 2.6655582155441824e+00 5.4410572567976123e+00 -5 1 -4
7820 1 1.7161988525608223e+01 9.2624448239781554e-01 5.4436145491937014e+00 3 4 2
7042 1 1.8723321061612502e+01 3.5462447344246080e+00 3.9369922093367222e+00 4 0 5
805 1 1.9230995055618401e+01 4.8156311926343687e+00 8.0267828480657126e+00 3 0 2
5851 1 2.6158754636421488e+01 3.8088004353964262e+00 7.0766250418667136e+00 -3 -3 -1
1474 1 7.5083272751364261e+00 9.1387400203767228e+00 9.7220739167449555e+00 0 -3 -1
4168 1 7.7607363987940001e+00 7.3154700673909634e+00 5.3330473750385305e+00 4 -2 0
6172 1 1.5704381544144645e+01 5.7358320311459075e+00 4.8050687777347934e+00 -3 -1 0
3084 1 2.0678990355570612e+01 6.2398730441971377e+00 6.6632320285168491e+00 -1 -3 4
4669 1 2.3205070529055504e+01 7.9293912720798421e+00 5.5090047472925683e+00 -1 0 2
4827 1 2.4639846133822111e+01 6.4333814409004475e+00 8.9642260144732173e+00 -4 5 3
3180 1 7.7621840088165266e+00 8.5183204342836962e+00 7.3603303197372361e+00 0 4 -2
949 1 9.8874831075687943e+00 5.9886646929501683e+00 5.2888251112678164e+00 -6 1 1
7601 1 1.4921403776388985e+01 7.9558995352061945e+00 5.7343684868353328e+00 -1 -1 -1
1021 1 1.9136532328022582e+01 8.3135917693616186e+00 5.5088094481074101e+00 -1 5 -4
1206 1 2.6143438015080946e+01 -3.5073067886489540e-01 1.5406996804779320e+01 -2 -2 4
3582 1 2.1801030321450742e+01 8.4832694148298469e+00 7.6507658245560686e+00 -2 0 -5
2927 1 7.4887015989171664e+00 -4.8954788979521711e+00 7.8607828758842917e+00 -5 -2 -2
5510 1 2.6384631998641243e+01 8.5657449264341974e+00 3.2112965032481853e+00 1 0 -1
1280 1 1.1443405361811584e+01 -3.9081343901504795e+00 8.3937929666975961e+00 -2 -2 2
1390 1 1.3185496099089956e+01 -3.6559089212216329e+00 1.0230240009643651e+01 2 6 0
2588 1 1.7495038662490067e+01 -3.5682263090806492e+00 7.4076359043306121e+00 6 1 4
3941 1 2.0180698335649126e+01 -5.9781112532097920e+00 1.0022305481852179e+01 -1 5 1
3368 1 8.8630774753974997e+00 -5.4817588202377854e+00 2.5675546422731959e+01 -2 0 3
2071 1 2.5925901215460108e+01 -6.0121210351451451e+00 6.7772231614702276e+00 2 -1 1
4309 1 8.8216577516158132e+00 -2.8676307848160030e+00 9.3645643705936692e+00 3 -1 1
1985 1 1.3854540495275760e+01 -1.9162836419730107e+00 7.6735457073893940e+00 1 -3 -2
6300 1 1.8336800472843745e+01 -1.4595635985625277e+00 9.2012600795474828e+00 -3 -3 4
2237 1 2.1001322903614980e+01 -2.4680866874188085e+00 8.4079253057107657e+00 5 1 -2
561 1 2.2947834375374338e+01 -3.0235242307685346e+00 9.6678163127174610e+00 2 1 -3
4523 1 2.5525359381550967e+01 -4.7144451110716963e+00 1.0107662303557879e+01 -2 2 -5
1119 1 9.2856568051136215e+00 -1.9001981668456125e-02 9.6767357272686603e+00 1 0 -1
5009 1 1.1140911028651162e+01 -1.5225129517387135e+00 9.1463645036418431e+00 5 -1 -7
4321 1 1.4614343836173372e+01 1.4859237618398264e+00 9.6133880730619605e+00 1 2 1
2641 1 1.6202279922380029e+01 -1.9303435441719685e-01 8.5362375379503277e+00 -3 6 1
7315 1 2.0354915457588291e+01 8.5311390227220141e-01 9.4107819205913259e+00 0 -5 4
6491 1 2.1922996397467529e+01 -6.1679244159852065e-01 7.2413175422726406e+00 2 -2 5
1932 1 2.4731495919743942e+01 -1.5937680709654067e-01 6.7809165548022543e+00 3 -1 5
6397 1 1.9970773515017331e+01 -5.4582060602435316e+00 2.1430818640086123e+01 2 2 2
2253 1 2.6457046533414083e+01 -8.1733345646939526e-01 8.2229167405964763e+00 4 -1 -2
2054 1 9.5293409636377788e+00 -2.8035919305936190e+00 2.6699225621608523e+01 0 -1 -3
7971 1 1.4396980242030878e+01 9.6384821029041259e+00 1.6050531406938415e+01 1 -1 1
437 1 1.2024734339745176e+01 1.5646682707624775e+00 9.1134014684651206e+00 2 -1 -7
164 1 1.4963111010094057e+01 3.7122374562633169e+00 8.7189574050430654e+00 7 4 -2
1405 1 1.8103572187576958e+01 3.3868600651056013e+00 6.1673819913342225e+00 0 5 -1
4525 1 2.0891165989991215e+01 3.2515604397922839e+00 8.6385531919432221e+00 2 -3 5
6974 1 2.4071682843301630e+01 2.1785359339668560e+00 7.9441252038333605e+00 1 -5 0
7680 1 2.0633911561382590e+01 -5.9108443836286950e+00 1.3512186423581957e+01 -3 3 2
2851 1 1.2710807542326179e+01 5.4843211781984316e+00 9.9974066762315932e+00 -2 1 1
2637 1 1.2698505220501659e+01 3.5414561940900544e+00 7.6794253606410816e+00 7 2 2
5230 1 1.3771678771070812e+01 6.1122011189764294e+00 7.0518140504190105e+00 1 3 1
6105 1 1.5931523993347300e+01 3.9665274231450418e+00 6.4665319436343918e+00 3 5 5
6448 1 1.7351252441172974e+01 5.1932945290182833e+00 9.9756727891200825e+00 2 -2 0
2789 1 1.7443855115703194e+01 6.5709388415561030e+00 6.8634513605403722e+00 -2 -2 -3
4392 1 2.3304411486315264e+01 4.5888309138702983e+00 8.6971426157274720e+00 -7 4 8
7320 1 9.7843956764613651e+00 7.7291203812527378e+00 1.0010252788624927e+01 0 2 3
5666 1 2.2350477085960733e+01 -3.1818275235882130e+00 2.6231028906025891e+01 2 2 -5
2720 1 1.1000991574631371e+01 5.8368242377709709e+00 7.3923280989913618e+00 2 -1 1
4348 1 1.1867958347227631e+01 8.5377945231931633e+00 6.6612781333367748e+00 -8 -4 5
3755 1 7.7453707279549953e+00 5.3571843089805604e+00 2.6609752225538866e+01 4 3 -2
2640 1 1.5389242235894780e+01 -4.3982872904136077e+00 2.3899297632192770e+01 1 -3 -1
1165 1 8.0566710636776726e+00 2.1699335418368637e+00 2.6050919034006053e+01 -1 1 0
7491 1 1.9270707406533816e+01 7.2883208893598699e+00 9.6711280928270522e+00 1 0 5
7423 1 2.3794185456087913e+01 8.4365358770053813e+00 9.4197812417788995e+00 -1 0 5
3480 1 2.2718439355255931e+01 5.9118243679423976e+00 2.6161909916142555e+01 -4 3 -3
846 1 8.9899400081511143e+00 -1.8194214127976087e+00 2.3639762154843773e+01 0 -1 -2
3290 1 2.6154072512729297e+01 8.9604026264897900e+00 7.8656303644580596e+00 2 5 0
7308 1 9.7568718821211284e+00 -4.6277084301923992e+00 1.0588807635060700e+01 -4 -1 -3
1784 1 1.2309944425012647e+01 -5.6000268943549383e+00 1.3102576946731249e+01 2 2 0
2984 1 1.5468537086725149e+01 -3.1169497691743517e+00 1.2462443884873522e+01 -1 3 0
1820 1 1.6223833549586693e+01 -4.4086286977134108e+00 9.5836318984225795e+00 -1 1 -2
3331 1 1.8251298726757184e+01 -3.5456648516703293e+00 1.1115936425355875e+01 5 0 -2
2391 1 1.9558501054479464e+01 9.5167680733436661e+00 7.7469059096555704e+00 -1 -1 0
1131 1 2.0914564705172587e+01 -4.2136414598409981e+00 1.1790075020646455e+01 -6 4 5
1006 1 2.5385573683223445e+01 7.5438340835923050e+00 1.1992974448544274e+01 0 0 -2
1696 1 2.6230067876953086e+01 -4.8752333336695379e+00 1.2516968131431927e+01 -2 2 5
6287 1 7.4077558053631050e+00 -2.8099430411509627e+00 2.5295505595664974e+01 1 1 4
2596 1 1.1654255098653266e+01 -3.6972036082186737e+00 1.1634919710746541e+01 -1 1 2
6100 1 1.4840784507512291e+01 -1.7092305623123725e+00 1.0187421902995245e+01 -1 -2 -2
3659 1 1.7243774541099270e+01 -9.8248342937632316e-01 1.1326589258884606e+01 -3 5 3
7832 1 2.0580914973245235e+01 -1.6045208757933063e+00 1.0926757786959730e+01 1 1 4
4640 1 2.3090682698084173e+01 -5.0153611423399020e+00 1.0555271429748819e+01 1 -4 -2
5624 1 2.3381775230816299e+01 -1.1430596125472849e+00 1.1082469741212508e+01 -1 3 1
4048 1 9.1898888855826470e+00 2.3818353541551627e+00 1.1316979317827071e+01 -2 -4 5
6649 1 8.2738014154842947e+00 2.8314848947550235e+00 8.6696581630525511e+00 1 2 2
6003 1 1.1477220325041825e+01 7.3230616263439963e-01 1.1563968342610789e+01 -2 1 -3
16 1 1.3537912737536402e+01 -6.7510190857541197e-01 1.1714483443979143e+01 -2 2 -1
890 1 1.8172040752251149e+01 1.4936860626565620e+00 8.1708598832895074e+00 1 -3 3
5683 1 2.0457955108826987e+01 1.6312573970042479e+00 1.1691571952798796e+01 -2 -1 2
3589 1 2.5375096873854311e+01 1.0195631089999182e+00 1.0515965985067208e+01 -6 2 3
1271 1 2.2903074800117153e+01 8.5140364269796187e-01 9.8964918386206389e+00 -2 -1 -2
4539 1 1.8620573094070600e+01 3.6816338077330961e+00 -8.7837823829442691e-02 -3 1 4
7195 1 9.7219493002717474e+00 5.0567694298287460e+00 9.0322101805338360e+00 1 3 3
862 1 1.3877454694698667e+01 4.8530454200736148e+00 1.2135822125255903e+01 -1 -3 -1
5989 1 1.5126774095275463e+01 6.3701503940702153e+00 8.8636732045738817e+00 2 -3 -2
4162 1 2.0001110394642772e+01 3.9455116061146409e+00 1.0874958340478543e+01 1 1 -6
4719 1 2.2876295906547469e+01 3.1784758788170233e+00 1.0918708241893798e+01 0 3 0
1803 1 2.5295629059384456e+01 3.3325688264668525e+00 1.2403347673366552e+01 -2 1 3
2657 1 9.6372949848914722e+00 5.3052297871054233e+00 1.2138466570732939e+01 2 -2 6
3266 1 1.3143312586973920e+01 8.3780943221191517e+00 9.0688875878293942e+00 1 -1 4
3576 1 1.5245746345264365e+01 7.4148451235495845e+00 1.1280951550623879e+01 2 -4 3
4390 1 1.6705794262319827e+01 8.1337688233499073e+00 8.7768158682515178e+00 -2 3 -2
5096 1 1.7218246036243528e+01 2.6866336449369346e+00 9.8556029569873385e+00 2 -2 -3
7348 1 2.2311115785687875e+01 5.4488841118319300e+00 1.1617230838229160e+01 -7 0 5
955 1 2.1636111575188636e+01 6.4260491622980620e+00 9.6132865488605539e+00 3 -3 -3
3796 1 1.9356809718897885e+01 8.0334798957684672e+00 2.2082980741018421e-01 -3 4 -2
276 1 1.5208956224261856e+01 -3.3548031846786861e+00 6.5772383245490920e+00 2 -2 -3
1910 1 8.9020266838734727e+00 8.5551746477215804e+00 1.2411719850019329e+01 0 -4 2
5123 1 1.0152961777986445e+01 8.9827716279008332e+00 7.7780406984625117e+00 -1 2 3
2603 1 1.3192651827467433e+01 8.5150642073987939e+00 1.2673179251302214e+01 3 4 5
751 1 7.8224784627022572e+00 -3.4206247400799032e+00 3.6651220891079022e+00 1 -3 1
1318 1 1.8838873543763121e+01 7.1419289698497401e+00 1.2785319970366814e+01 2 1 1
6516 1 2.2867290192251044e+01 8.1225998867478477e+00 1.2349136197330031e+01 2 -3 -1
1562 1 1.4664858239292753e+01 9.4040760127166472e+00 7.5750551945787343e+00 0 -2 -1
2264 1 2.6418376972060358e+01 -1.0101539229477634e+00 3.3476745761196036e+00 2 2 1
6558 1 1.3661877055555038e+01 -3.4416743990837109e+00 1.5838765062645013e+01 -1 0 -2
2672 1 1.8536545177091771e+01 -4.3075147493608936e+00 1.3830327236817579e+01 0 -5 1
3189 1 2.2302791346527808e+01 -5.1201334206130591e+00 1.5064585504309527e+01 0 2 -2
872 1 2.4262340589285596e+01 -2.3766153454393502e+00 1.3767798059915375e+01 7 5 1
2521 1 7.3175153776516648e+00 -1.9039811223597383e+00 5.7026310863714889e+00 -1 -3 0
7396 1 1.0803630792061590e+01 -2.2071258062261236e+00 1.4679591149440574e+01 5 2 -1
7794 1 1.0289471305569808e+01 -1.6374117307575968e+00 1.1925372332250319e+01 1 3 -4
4590 1 1.3148196052656635e+01 -2.2422632723191365e+00 1.3548690848018239e+01 8 -5 3
203 1 1.5963280372902974e+01 -2.4671699730586463e+00 1.4549532524122775e+01 -5 2 -2
7119 1 1.9379597409153952e+01 -6.0592913568601148e-01 1.2462892926328376e+01 3 0 -2
4399 1 2.1849148186334048e+01 -1.5428619536122339e+00 1.3451717967618901e+01 -1 -7 2
3257 1 2.5369674214704020e+01 4.6829906495242923e-01 1.2932399223998402e+01 2 -3 4
2748 1 2.5976512357082228e+01 -1.7330587119488872e+00 1.0872918277157613e+01 3 1 -4
386 1 8.0920526501172318e+00 -2.3515608214710029e+00 1.3644569110078928e+01 -1 -4 1
5218 1 1.0925275602418100e+01 2.2171499881262680e-01 1.4123686373956417e+01 0 0 2
1806 1 1.3669429779886173e+01 -3.0034167429992564e-01 1.4941735245152154e+01 -1 5 1
7818 1 2.1360883101148776e+01 5.3251975874365343e-01 1.4694729794305994e+01 -1 -1 0
3185 1 2.3031285361305610e+01 1.0792896548810296e+00 1.2893571100245182e+01 1 4 6
2230 1 2.4626346710080682e+01 8.4123009022772894e+00 1.5118606938409894e+01 3 2 2
5264 1 8.8718321138667360e+00 1.2428518110042885e+00 1.3614317482722372e+01 4 2 5
2320 1 1.1207115995092419e+01 3.6956266080118372e+00 1.0792550586796755e+01 3 5 1
2998 1 1.3666633993327785e+01 2.2621341908487409e+00 1.2219295058247736e+01 0 -3 5
3058 1 1.5766610685515895e+01 8.8197307652165069e-01 1.1678105068369248e+01 2 5 -3
5106 1 1.5920674376262529e+01 5.4785229179484958e+00 1.3268684266352190e+01 4 1 -3
3333 1 1.7529728958915861e+01 2.5133912911107537e+00 1.2358840148885214e+01 -1 -1 0
7335 1 1.8042210054011317e+01 4.0593685548665253e+00 1.5133532134723394e+01 -3 4 1
4935 1 2.3834039376160149e+01 2.7893387585782605e+00 1.4559219784015744e+01 3 -1 3
1423 1 8.7113963631567124e+00 6.7502208115917277e+00 1.5664564490645098e+01 -2 -5 1
7580 1 8.6773248288778504e+00 4.1381261318669349e+00 1.5677741160600473e+01 3 -3 2
3917 1 1.0663179801643357e+01 3.4041263433993016e+00 1.3837533050642572e+01 -1 1 -2
7278 1 1.2306703916559037e+01 5.2506356697137804e+00 1.3755950151511062e+01 -8 -3 1
2318 1 1.6026224087538317e+01 9.3713807271808491e+00 1.2741264696092164e+01 1 3 -1
3078 1 1.7910481402789337e+01 5.0294004666728824e+00 1.2461781450993728e+01 -2 3 -1
503 1 1.7496585994657210e+01 8.5102349139676985e+00 1.1219496179121920e+01 -1 -2 2
5947 1 2.0885579226394714e+01 5.1997489278000426e+00 1.3378573256009929e+01 4 -3 0
7959 1 1.9943422158198214e+01 2.7597612085456529e+00 1.3801480533228775e+01 4 1 7
5496 1 2.4313702783287550e+01 5.3973206528264726e+00 1.2883569640236015e+01 -4 4 -2
2891 1 1.0467107448460608e+01 7.0038098032709701e+00 1.4176386364903982e+01 -2 -3 -2
4225 1 1.1933150165208453e+01 7.3994156202675843e+00 1.0964468396205993e+01 -4 1 -3
4030 1 2.4210602459342475e+01 -5.0869397995587757e+00 1.1922363727158340e+00 0 3 -1
533 1 1.4979827704905532e+01 2.2733581391466355e+00 4.7882115276079251e-01 -3 1 0
488 1 2.1894131043977666e+01 7.1353119603556472e+00 1.4498380319909559e+01 0 3 3
7796 1 8.2276204912483610e+00 -4.3005073354654400e+00 1.2357177607557478e+01 -6 4 -1
4580 1 7.6339528015280882e+00 -4.0359947350660486e+00 1.7232064238714205e+01 2 -6 2
5949 1 1.3077880039349530e+01 -5.6009035925571906e+00 1.5329891521269062e+01 -6 1 5
1114 1 1.5320529410481731e+01 -3.0177352899877845e+00 1.7550877396633361e+01 1 -1 1
5957 1 1.7391149616620503e+01 -4.4661363852968092e+00 1.5759507425864204e+01 2 0 -2
6644 1 2.0233193738031868e+01 7.4420407035838849e+00 2.6183934521955905e+01 2 1 -1
1570 1 2.4262576030677746e+01 -3.4449909498199371e+00 3.1380420973480061e+00 -2 -1 -7
5906 1 1.5638459892780183e+01 9.4939807861755856e+00 2.3193777550993865e+01 -2 0 1
6898 1 2.0508269075290205e+01 -3.6777085900312216e+00 1.6547000165256179e+01 3 6 2
4926 1 2.4319319553282959e+01 -4.6675025014008202e+00 1.6587000602494847e+01 -5 2 -1
4923 1 2.1932952084009123e+01 -1.0265483351135991e+00 2.6576403381046280e+01 3 0 -1
2478 1 9.9954243997661294e+00 -3.9759621218024619e+00 1.6294718463830762e+01 -4 6 3
5503 1 1.1880565026192798e+01 -1.8311351607329831e+00 1.6879643501992813e+01 0 -1 -1
5633 1 1.7816762713823515e+01 -2.6202562745882347e+00 1.7553856111394708e+01 2 -2 0
3444 1 1.8371590352507198e+01 4.9221525755327011e-01 1.4371954470128571e+01 3 0 0
3096 1 2.0136555007102519e+01 -2.7727278507666995e+00 1.4321600412858146e+01 0 3 -4
46 1 7.8236828251835231e+00 -2.0085527357914890e+00 2.1167647952298164e+01 1 3 -7
1498 1 9.7896717128637132e+00 -1.4456071963601076e+00 6.1348855463910457e-01 -4 7 1
1658 1 8.1911200673332605e+00 -1.6718905228998784e+00 1.5996971711309225e+01 4 -2 -1
4245 1 1.4316290533352994e+01 1.8297030953059767e+00 1.6581849778204269e+01 0 -1 1
2145 1 1.5841784859297634e+01 1.6032745295052742e-01 1.4041247758334988e+01 0 2 4
6687 1 1.6262596631855253e+01 -1.2323506672199080e-01 1.6850843060138949e+01 -3 2 -1
7365 1 1.5443850902367393e+01 2.8325972869957869e+00 1.4185098281590514e+01 2 5 2
343 1 2.2851463866099024e+01 9.5607003118992484e-01 1.6719473895024908e+01 -3 0 -2
2130 1 2.5077367981715501e+01 6.5860294784142059e-01 1.7819141090130490e+01 -1 -1 -4
1025 1 2.3879752744973683e+01 -1.5709105871497080e+00 1.5704066149047208e+01 -7 -2 0
4768 1 7.7140926196258519e+00 5.5003081161276235e-01 1.5657357151261575e+01 4 -3 -4
5470 1 1.2823902921263320e+01 2.0998054610368531e+00 1.4516261967613181e+01 1 -5 4
7463 1 1.0126372384024080e+01 2.1455202640346158e+00 1.6192246577886436e+01 2 -2 3
1796 1 1.3216855094889233e+01 4.2641080697390699e+00 1.5662065551929665e+01 -2 0 -1
3521 1 1.7979720416904698e+01 5.8703887124124101e+00 1.8283808852696659e+01 2 2 3
770 1 2.5863136058543731e+01 2.5868320074135571e+00 1.6011783105590379e+01 -1 -4 -4
5171 1 2.3743366944346310e+01 3.3911406207634727e+00 1.8143426174175200e+01 1 2 -1
1843 1 1.4967909095606752e+01 7.3639850201389834e+00 1.4570157146779872e+01 -4 -3 2
1361 1 1.7884563289214377e+01 6.8645806916899961e+00 1.5354547614664902e+01 0 -1 1
6262 1 2.0106917947202930e+01 5.9772910191813455e+00 1.5999852422759048e+01 0 4 0
1922 1 2.1455599628229276e+01 3.2082699094493634e+00 1.5587991692112734e+01 -1 -1 0
4386 1 2.2532338857087019e+01 6.2029685172191922e+00 1.8127217280385171e+01 0 -1 1
2363 1 2.4623083300979157e+01 9.4311427852900582e+00 2.4363506927915349e+01 -6 5 -5
3381 1 8.6227028413153164e+00 1.0138006616991163e+01 1.4334743524226548e+01 1 0 2
4241 1 1.1470160671015099e+01 9.5449926147717772e+00 1.4606326810679384e+01 1 0 -5
2284 1 1.5144160765347591e+01 6.7697812776943422e+00 1.6818295148006797e+01 -2 -2 -2
3296 1 1.7164400484198481e+01 9.2676004995607837e+00 1.4525031529955822e+01 -3 -2 -4
5788 1 1.9916377195817127e+01 8.9377397512358012e+00 1.4336800518593828e+01 -4 0 1
4448 1 2.5715926297891624e+01 -2.3432827066122131e+00 7.6107646216921632e-01 -1 -4 0
2526 1 2.3059615378530616e+01 5.0481914051641343e+00 1.6021886746579995e+01 1 -1 -3
5700 1 2.6365460175414679e+01 5.8702761172557327e+00 1.0254279298202897e+01 -1 4 -3
5877 1 2.6231967038623921e+01 8.6146065395526907e+00 5.2121810928324719e-01 -1 2 3
7486 1 2.0339127402255777e+01 4.9747442248787177e+00 2.4438177949214491e+01 -3 0 3
6930 1 1.1697888745801350e+01 -5.3117121078428156e+00 1.7284298512731368e+01 4 0 0
7480 1 1.8033431714960265e+01 -4.3069455296025776e+00 1.9702596233999810e+01 -4 4 3
5616 1 1.9075650659435055e+01 -5.9009156758463215e+00 1.7000845472605576e+01 5 -1 -1
6858 1 2.1757626704785537e+01 -5.2586801169346344e+00 1.8193521712876461e+01 -1 -2 -3
879 1 2.4381537628089188e+01 -3.7865748695173411e+00 1.8469861734503159e+01 0 -6 -1
508 1 1.0843606166009364e+01 4.0328989547278233e+00 2.6413985499279601e+01 1 0 5
3466 1 1.1838264873344995e+01 -2.6248993760107462e+00 1.9004026613115315e+01 0 0 1
6460 1 1.4175886706255564e+01 -7.4321149684318755e-01 1.7999276839000327e+01 -3 1 -2
1010 1 1.8539202188697601e+01 -7.9142860100062951e-01 1.8772253376153561e+01 -5 4 1
307 1 2.0399586405622536e+01 -3.0215742816726330e+00 1.9059695827425386e+01 -8 3 -2
6213 1 2.1842516605829417e+01 -1.6201592843273565e+00 1.7879603525713740e+01 -1 -2 -2
6725 1 8.1937681798938815e+00 9.1029964503372973e-01 1.7997254146379365e+01 -4 -2 -2
3440 1 1.1660815019021536e+01 6.3185309195824946e-01 1.7655976193634558e+01 -2 -2 -3
4788 1 1.7063746815659890e+01 2.1398841753885396e+00 1.8098465281194503e+01 -8 2 0
2713 1 1.8660978456987504e+01 1.7995017132561433e+00 1.6637574307039745e+01 3 -2 -4
3031 1 1.8318773518629985e+01 -1.6105861106366506e+00 1.5471197815323078e+01 2 7 -1
2552 1 2.0179284239792082e+01 1.0128373005970115e-01 1.7533113977706893e+01 -3 0 2
4215 1 2.5533044496386395e+01 -1.8148959254374875e+00 1.8409141351621123e+01 2 2 -1
7727 1 7.4330253194296265e+00 4.9093332725969159e+00 1.3277776861521973e+01 1 1 3
699 1 1.0941931629264666e+01 4.8442628229731231e+00 1.6685552830403640e+01 6 4 -5
7388 1 1.3152045082136432e+01 2.4415819431943202e+00 1.8503708239117316e+01 -2 2 3
1124 1 1.6437140677483221e+01 3.9538551454648712e+00 1.6786177594678268e+01 0 0 6
4192 1 1.9861141413057751e+01 4.0319046206813383e+00 1.7526844481819971e+01 2 0 0
2096 1 2.1550573717812032e+01 3.4861854022931098e+00 1.8973804052703191e+01 1 3 -1
915 1 2.4944898810532322e+01 1.9467442051808170e+00 1.9904842591001263e+01 3 4 2
5873 1 9.0569757635730213e+00 6.5727228381666514e+00 1.8337641349341769e+01 -4 3 -3
625 1 1.1253275908894183e+01 3.7358706766569441e+00 1.8842069943913931e+01 -1 3 -3
4055 1 1.2286047934367740e+01 6.8612072493063874e+00 1.7636929384011211e+01 -4 -2 1
643 1 1.4125361558454353e+01 4.9531662060817681e+00 1.7860808328977274e+01 -5 0 1
7415 1 1.1663859501655539e+01 6.1482585601173696e+00 1.9829849043489830e+01 3 1 -1