LAMMPS data file via write_data, version 16 Mar 2018, timestep = 2000000

8000 atoms
1 atom types

7.2687514236785411e+00 4.6286185331240418e+01 xlo xhi
-5.8314954736650293e+00 5.9359852727278437e+01 ylo yhi
-6.4078060246593793e-02 5.3559944776016145e+01 zlo zhi

Atoms # atomic

7812 1 2.5710225898124090e+01 -3.5318807246855410e-01 2.6296791169562457e+01 -3 -4 -3
298 1 1.8226760273582705e+01 -5.5277948879815950e+00 1.5819038135022808e+01 -3 -1 -4
6674 1 1.5578980453735351e+01 -2.6850400749526551e+00 4.1250697193444497e-01 4 -2 -2
2822 1 1.9942820418939476e+01 -4.4353124307709431e+00 2.4361273598127351e+00 4 4 2
2035 1 7.9270111627918221e+00 3.4042004266287798e+00 8.1037134727138671e+00 0 3 1
6337 1 2.3159104471118653e+01 -3.6592025429924795e+00 1.0071155466063129e+00 1 1 -4
723 1 2.5121709786744375e+01 -4.9488601107217320e+00 1.5285614459745320e+00 -3 -3 3
6963 1 8.7211736569837672e+00 -1.5855667089622889e+00 1.1269349265039477e+00 1 6 -1
302 1 1.3228762503578388e+01 -1.8275435156876627e+00 1.7651551746329868e+00 -4 -4 -5
12 1 1.4329384276631982e+01 1.3789722445249062e+00 1.9006813275452941e+00 0 -3 -2
950 1 2.2899871935486985e+01 -3.7377464212965172e-01 2.6461202000181565e+01 1 4 -1
3092 1 1.9443099680543501e+01 -2.1587519037252414e+00 1.9871454679638885e+00 6 2 -2
556 1 1.8056631274283156e+01 8.3097896931242268e+00 2.3876017548174427e-01 -1 0 -2
1033 1 2.4359368081346933e+01 -7.1595385128431666e-01 3.0504072095236929e+00 -1 0 6
4916 1 2.0944141215215588e+01 1.9690972736867041e+00 2.6521909129924506e+01 2 1 3
2697 1 1.0721709339799663e+01 -1.2001321270164134e-01 1.1435453712623507e+00 5 -2 2
7277 1 2.2579752150751357e+01 9.5866259332889943e+00 1.5597490890254976e+01 1 6 -3
1878 1 1.7072621324351559e+01 6.4417915255835911e-01 1.1258821448376841e+00 0 5 -2
497 1 1.9401852188979035e+01 1.3373366267642295e+00 9.8532750149194204e-01 0 0 0
6513 1 2.2592436351006551e+01 -9.8946113512757439e-01 1.4583665087231406e+00 -1 1 -1
3344 1 2.3398548202027293e+01 1.9712886415590498e+00 5.8798144558310539e-01 -2 2 2
1043 1 2.5365166156237169e+01 8.0459236699363768e-01 1.4677707504189412e+00 3 2 1
2292 1 2.3578274265096749e+01 -5.4223776636589411e+00 1.5827094490984216e+01 2 3 2
1086 1 7.9073019368625177e+00 2.3472912839762365e+00 9.1910067120178895e-01 5 4 0
2353 1 1.1066089140009188e+01 2.4586319806346513e+00 1.1978379184077887e+00 2 6 0
1554 1 1.4569589292412946e+01 3.9533395462082943e+00 7.9679526878838147e-01 2 0 -2
4724 1 1.6959187360918829e+01 3.0808096980532547e+00 2.2861158309149467e+00 -1 2 0
3662 1 2.0439000030849542e+01 3.1482760651337198e+00 1.6753705511705788e+00 -2 -1 1
2546 1 2.4809101545715862e+01 3.7340745718455235e+00 3.6050491628074516e-01 2 -2 1
432 1 1.0121438298923565e+01 7.4650661406011309e+00 1.6208218800950787e+00 -4 -1 -2
995 1 2.6727014584910211e+01 9.5604045178010058e+00 2.3799223671602231e+01 2 -1 -1
6675 1 9.5602730655963342e+00 4.6749732892439653e+00 1.5633146745254769e+00 -2 5 2
6193 1 1.2460938266377244e+01 -5.7338660009017470e+00 9.4786973631349003e+00 0 4 -1
7949 1 1.4772780724193057e+01 5.9435241793652001e+00 2.4102463542513020e+00 -4 1 2
400 1 2.0374882470879232e+01 7.3911950720378616e+00 5.5031324470253451e-01 -4 5 3
5437 1 1.7211538470478907e+01 6.0653406426058218e+00 1.1762650681058218e+00 3 -1 -6
5129 1 2.2112332821813492e+01 5.5284446843627144e+00 2.1876079598386329e+00 4 1 1
4366 1 1.6540421332113375e+01 6.1676336818639026e+00 2.6055055248352097e+01 5 -3 2
6284 1 2.5584537421518796e+01 6.5144047216954508e+00 1.7398322327064111e+00 1 -4 -4
6010 1 1.0439590179247709e+01 9.8772598184784037e+00 1.0135090232449517e+00 -4 2 1
5335 1 1.2863367783092773e+01 8.8886987221581197e+00 6.7458984999997362e-01 -1 2 0
3000 1 2.4291121247551455e+01 8.6821514547461831e+00 2.6356803031576685e+01 1 1 -1
3767 1 7.7443084844007499e+00 9.6479460602464844e+00 2.2664682677935030e+01 -1 3 0
3563 1 1.6781033533561448e+01 1.0017659715735443e+01 1.3210456283908314e+00 0 4 -2
2751 1 2.3154471097834254e+01 9.1245871899438384e+00 1.8556429323586572e+00 0 1 -2
3148 1 2.5904144381268413e+01 8.8761841276457289e+00 2.9191813003756359e+00 0 -1 -3
5002 1 8.6407719854624290e+00 -5.2665521677755835e+00 2.4150267161706842e+00 0 -2 -1
6668 1 1.1317068959806557e+01 -3.2629457340662995e+00 1.5293681004281883e+00 -6 2 0
3096 1 1.2133773861037870e+01 -4.1851358983195679e+00 3.9331822269414443e+00 -1 3 -5
178 1 1.4550308613412920e+01 -2.4161424690465982e+00 3.8080215349098334e+00 -2 2 0
1661 1 1.6766484897021321e+01 -4.5642666187597127e+00 3.2146207136911862e+00 -1 4 -6
7292 1 1.9238281403060959e+01 -3.5160586854736366e+00 4.8847662776490397e+00 4 4 4
6999 1 2.6716763323221443e+01 5.3010526294126574e+00 4.4190147049383652e+00 -2 2 -1
3720 1 2.2879365363266825e+01 -3.7623774026979677e+00 3.4222958748492962e+00 0 -2 3
5544 1 2.5477917043711592e+01 -3.6205090914336537e+00 3.4301840185506269e+00 1 2 8
165 1 9.7403404779019827e+00 -2.5963896730112732e+00 3.5115623784452601e+00 -3 -1 1
4775 1 1.7185029442506966e+01 -2.2043008154873465e+00 2.3145318771171510e+00 1 -4 -3
3117 1 2.1259155960288144e+01 -1.7436275227059896e+00 3.5347393618514413e+00 3 1 3
2219 1 2.4109971544772733e+01 -2.2044503930433401e+00 5.4359538099677005e+00 -7 -3 1
4306 1 1.4565655567962953e+01 -5.3339612204775237e+00 1.1648367052543064e+01 0 -3 -4
3649 1 9.2800515466859732e+00 1.8990427572557351e+00 2.9645782266779470e+00 -2 -1 0
38 1 1.2291940402784096e+01 -9.4468509947335910e-02 2.9306214787411697e+00 4 1 -1
3802 1 1.2916995993403365e+01 3.1111732159548193e+00 3.4382938685972526e+00 -2 7 -1
3278 1 1.5555120986608257e+01 -2.2947438064127912e-01 3.6233689432876650e+00 -6 -1 -3
716 1 1.7339904903120022e+01 1.3422038038869086e+00 4.1288533235499756e+00 -2 1 -2
4285 1 1.9517646166704036e+01 3.9024158347861171e-01 3.0074608039592494e+00 -1 -4 -1
4864 1 2.2404861901606772e+01 1.5815616137537987e+00 2.6348271856231453e+00 -1 -5 -4
4923 1 2.6039334635735756e+01 1.8367015372760971e+00 4.8790193248976905e+00 3 1 -1
4503 1 8.6683249430778488e+00 3.7586721297351211e+00 4.2548448500416383e+00 0 -2 4
1736 1 1.1328345325495587e+01 5.0049869087432644e+00 3.3893253055754942e+00 0 -5 -1
4232 1 1.5282459553186444e+01 4.0441714084870313e+00 3.7331033017371813e+00 2 0 2
1752 1 1.8859779638438603e+01 4.4933321761634968e+00 2.8306433603704728e+00 0 1 -4
6190 1 2.5256745068123834e+01 4.4130861697523560e+00 2.7755042956869262e+00 -1 -4 -1
681 1 2.6545926858741637e+01 3.3884920476592431e+00 1.6647872328162055e+01 -4 2 -1
5702 1 1.1702696809962255e+01 7.3811011425044075e+00 5.5930563134561089e+00 0 -2 4
3125 1 1.2482106016858467e+01 6.3135134622006834e+00 1.8046861583686724e+00 -1 -1 1
7223 1 1.3147584522277308e+01 5.5884139790165772e+00 5.0017965721710436e+00 -2 3 1
7327 1 1.7969148391720889e+01 7.6667495338936735e+00 3.0083115976855272e+00 -3 0 -2
734 1 2.0108626852447077e+01 6.3748174540828195e+00 3.2146723235205177e+00 0 5 5
3946 1 2.1230303676363981e+01 6.4776832138293443e+00 5.2485269133084218e+00 2 -3 2
1704 1 2.3529124517016914e+01 7.0815421089531263e+00 2.8961791121324758e+00 -1 -2 -3
1898 1 2.6633310245887753e+01 8.0117210375990506e+00 2.5930888945252139e+01 3 6 1
7677 1 9.4781549914317793e+00 7.8161698168306390e+00 3.7243330479161068e+00 0 -2 2
6588 1 1.4078634714378037e+01 6.1076008095032162e+00 2.4211955279586498e+01 6 -1 7
3093 1 1.2631371556646069e+01 8.5267903821816908e+00 3.2192124426099484e+00 -7 0 1
3532 1 1.4998854581319316e+01 7.9549966546967035e+00 3.6738168019624857e+00 0 2 -2
1732 1 1.8069190189324001e+01 9.6525521348612280e+00 4.4905939904007104e+00 -3 4 5
1922 1 2.0907643092964740e+01 8.9838707705239340e+00 3.1397105827819107e+00 0 -1 -1
6919 1 1.3272319269801503e+01 9.9341373957099961e+00 5.6365026989385090e+00 5 1 -2
3156 1 2.6512580251044305e+01 8.8891373527188051e+00 5.1524407838592259e+00 5 1 3
4626 1 8.7073794823048161e+00 -4.4497398262367680e+00 4.6896726256394174e+00 0 -1 3
2959 1 1.3036548581767631e+01 7.7307027006158791e+00 2.5426961965292669e+01 1 0 1
1820 1 1.1470506660078062e+01 -3.8838784050418504e+00 6.1321566059161574e+00 -2 1 -2
2946 1 1.4381012241618958e+01 -5.0382610253031723e+00 6.0717977665888396e+00 -1 2 -2
3719 1 1.7374023654818330e+01 -4.9473899093042482e+00 5.4317699195432834e+00 4 0 0
631 1 1.9149554478866619e+01 -4.1645469943456934e+00 7.7039243401179025e+00 0 3 0
5969 1 2.1630927645767891e+01 -4.0318861937836346e+00 5.9676258176374350e+00 2 0 5
167 1 2.3648393997379312e+01 -5.5039670738310322e+00 5.7316496031617126e+00 1 2 4
3279 1 2.5317822722737297e+01 -4.1705480320845245e+00 6.7356185785447895e+00 -2 -1 2
5343 1 8.5074658995774453e+00 -3.6724411375597388e-01 3.6678531162015573e+00 -8 -3 -3
2773 1 1.1971777901002362e+01 -1.5665795825073863e+00 4.7172763638536335e+00 2 -1 0
7932 1 1.2607977631429033e+01 -8.6946936063046820e-01 6.8814357641569144e+00 2 1 6
332 1 1.5063410117233001e+01 -1.8141856266122947e-01 5.9649709160875046e+00 2 -3 2
4559 1 1.5873756396109057e+01 -2.9370756898374006e+00 5.9561199020746676e+00 6 1 4
3988 1 1.7921438684057819e+01 -1.4332368223019367e+00 4.9404767470101048e+00 2 -3 -2
5373 1 1.9790010677378898e+01 -1.4004941147613437e-01 6.3299330382360264e+00 2 -1 7
82 1 2.2004386710391312e+01 -7.5641595835681219e-01 5.8079340389639542e+00 -1 5 3
1374 1 1.1974639187719546e+01 1.6804372308772138e+00 4.8997716023296469e+00 -3 0 0
7117 1 1.3871137069086632e+01 1.9268592171384924e+00 6.1909643671997596e+00 6 1 1
6946 1 1.6848467456164613e+01 1.2607293012829093e+00 7.2053340632914953e+00 -5 2 2
1693 1 2.0551815678737235e+01 1.5656219727486977e+00 4.7081989655347423e+00 0 -1 6
6439 1 2.3899298572593093e+01 9.4672261421687498e-01 4.6029640128963241e+00 0 -4 1
5524 1 2.5909331464079678e+01 -8.3512503809687377e-01 6.1168925784556469e+00 -3 -4 2
4117 1 9.2469099115796283e+00 2.2889216793483964e+00 6.0310956927404069e+00 8 0 0
2825 1 1.0152292476892523e+01 5.3528246445605578e+00 5.6023539754522140e+00 2 -4 2
2425 1 1.1133430114354105e+01 3.5858141693804004e+00 7.0361551570090910e+00 -7 1 5
1766 1 1.3347509356037898e+01 4.5508018748346721e+00 7.2652071591973213e+00 -4 0 8
2695 1 1.6420271317848830e+01 3.0699074126308936e+00 5.6201192115610938e+00 1 4 1
1710 1 1.9230316298596506e+01 3.5616628535079329e+00 5.1160254568407568e+00 -5 -1 0
1297 1 2.2855439934734136e+01 3.7263447513246213e+00 3.5294212240859699e+00 -3 -2 -3
5985 1 2.2200397754075226e+01 2.4364750758847702e+00 6.2791025539981229e+00 1 -5 0
724 1 2.3725991269587663e+01 4.5972706301840276e+00 5.5661527165065534e+00 2 -1 -3
5337 1 2.5801005347011444e+01 3.5273545528575951e+00 6.2280272729311488e+00 2 -1 -2
3855 1 8.6095392388739302e+00 7.0465110305718177e+00 6.5217151005464409e+00 0 -3 2
5185 1 1.7168411525592298e+01 5.7317423720763632e+00 4.4521235929790990e+00 -1 2 4
5305 1 1.9165222761606479e+01 6.9162569669484455e+00 6.5409677403833646e+00 3 2 1
5706 1 2.3635944205433006e+01 6.8444400251619602e+00 5.2243703882501675e+00 -1 2 1
3578 1 2.6188563448906375e+01 6.6946908790259343e+00 6.1673153973421968e+00 13 -5 1
7405 1 2.6238757713914328e+01 -2.3925280733653276e+00 1.9238524256730326e+01 7 9 -3
784 1 1.0981245240686807e+01 9.5081240160190017e+00 6.8807723404623022e+00 5 3 3
1935 1 1.2438234657701525e+01 1.8687621603415394e+00 2.6500214461360486e+01 2 1 3
1918 1 1.3546326523574042e+01 8.5491063058323640e+00 7.9484555608461580e+00 2 -4 5
676 1 1.4820221674716358e+01 7.3116833900778317e+00 6.0573714493026340e+00 0 -5 2
225 1 1.7097268287700810e+01 8.1202779286360851e+00 6.1905005019560795e+00 -3 -2 -3
727 1 2.0932407064847553e+01 9.3859305785105978e+00 5.6483711584997698e+00 0 2 1
6711 1 2.2702170817804078e+01 8.6679794197090292e+00 6.9928624699649076e+00 4 1 7
5232 1 2.4825484753754974e+01 9.7730181833588041e+00 6.8996290308552091e+00 5 1 4
5769 1 2.3261022627245829e+01 5.6556100059690042e+00 7.6760861145476422e-02 0 1 1
4730 1 1.0069153449333623e+01 -4.7343821993980217e+00 8.5000353755786620e+00 2 5 -1
1191 1 1.3212383525013504e+01 -3.9206303642142428e+00 7.9229889475467905e+00 0 2 0
7386 1 1.5222566050570427e+01 -3.0225167335732035e+00 9.0036173617173585e+00 2 1 2
2856 1 1.7192917506176581e+01 -4.6543825774201277e+00 9.1000279229145313e+00 -1 0 -2
1122 1 2.1434887681294775e+01 -4.6675555775087947e+00 8.8813015975661234e+00 5 10 -1
3248 1 2.2440481494667189e+01 -2.4787647250193285e+00 7.7539749735808439e+00 -7 0 1
424 1 2.4314558183307227e+01 -3.5163506932418747e+00 8.6547941097889698e+00 2 1 0
7095 1 8.0720653108662859e+00 1.3507701781761083e+00 2.0167842308901268e+01 2 3 4
6378 1 9.9789118879558707e+00 -5.9731234383143317e-02 5.5026586795213621e+00 0 0 4
6301 1 9.5981609582617562e+00 -2.4456271350078311e+00 6.6162823200193550e+00 -4 2 3
7400 1 1.1893930752646821e+01 -2.2245821461686472e+00 8.9789141470371288e+00 -6 7 1
971 1 1.8679654021572709e+01 -1.8578530005973168e+00 7.6743720726913223e+00 -3 -1 0
1717 1 1.6519230887572611e+01 -1.3451472371156994e+00 8.0789896847363991e+00 -2 6 0
1877 1 2.0792244037800177e+01 -1.4234381764772879e+00 9.5211482027192460e+00 5 2 0
1961 1 8.8214555302421118e+00 7.6463461963758483e-01 8.5609213342341732e+00 -2 -6 -8
6556 1 1.1330257697087131e+01 1.0794017035232519e+00 7.8520271365566456e+00 3 -2 -2
1271 1 1.4417685997589512e+01 1.4206749176861155e-01 9.0943967854289873e+00 -3 -2 -3
3184 1 1.8999199684217359e+01 1.5003776435606815e+00 7.6831738581250208e+00 -7 -1 2
2995 1 2.1781011389397580e+01 1.0349850527602849e+00 8.5528572970561001e+00 1 -2 2
3029 1 2.3995014657171723e+01 3.4940749230949120e-01 7.5311130857313948e+00 0 -1 -4
4698 1 2.4763135353620793e+01 2.5002922471737659e+00 8.2137595053955543e+00 0 -3 1
2606 1 9.8649853418308595e+00 4.4793330865210095e+00 8.8353624063558254e+00 1 -2 -1
5602 1 1.5047890886393295e+01 1.0117706119027313e+01 1.1739022668810442e+01 3 -1 -1
127 1 1.3681322207620017e+01 2.5081115130338620e+00 8.8073168189587570e+00 -1 2 -2
5715 1 1.5911234553247818e+01 2.9440494806462603e+00 8.8129341860807617e+00 0 4 -2
1993 1 2.0957389358200246e+01 4.2045073070461036e+00 6.9033771586138730e+00 -2 -1 2
1621 1 2.2860779890073125e+01 3.4337404441781576e+00 9.3794277661967129e+00 0 2 2
7799 1 9.8559823662800206e+00 6.7185179633711236e+00 8.5609307330889166e+00 2 -2 -2
1681 1 1.2373860388094705e+01 6.6650006620806135e+00 8.0993594773493545e+00 0 -2 -1
4619 1 1.2510811666856032e+01 6.0883144957881044e+00 1.0296835088235586e+01 2 -2 1
6347 1 1.5577933707886254e+01 5.5323054073666924e+00 7.6579855992694874e+00 0 3 5
3039 1 1.7841116988000337e+01 4.8727115485985895e+00 7.1069198063140924e+00 -1 0 3
2487 1 2.1498241921282894e+01 7.0176131521016636e+00 8.4281840638186178e+00 -2 4 -1
7817 1 2.2972484160573799e+01 5.1774567004581602e+00 8.0608168390034862e+00 0 -3 3
327 1 2.5378349134366069e+01 5.9222164564682895e+00 8.2429461017727270e+00 -2 1 0
3389 1 8.5015420329982483e+00 1.0103312693385659e+01 7.4693199844930103e+00 -2 -1 1
3877 1 2.2401576312920017e+01 -4.7677875492495714e+00 2.2004549755717548e+01 1 1 4
7169 1 1.5724175712080433e+01 8.4652382977075504e+00 9.1827801898052517e+00 2 -2 2
7587 1 1.6815314175835809e+01 9.9972526616867157e+00 7.5917760958540397e+00 -3 -2 3
780 1 1.9414934687265912e+01 8.6492679376100536e+00 8.6508912742918849e+00 3 1 1
1496 1 2.5485975946689930e+01 8.4923033193544502e+00 8.8491845952129680e+00 -1 2 -2
890 1 1.0031271881400377e+01 -3.0475853429769337e+00 1.1904216989740156e+01 2 -3 3
3464 1 1.9199385063979239e+01 -5.6368507560145344e+00 2.5909221639013666e+01 -1 2 -1
6483 1 1.2079722608621960e+01 -3.8199258291250442e+00 1.1227087814738466e+01 1 0 -2
699 1 2.6106705220147774e+01 -2.7671752330763186e+00 2.6551284041014711e+01 7 5 -5
5321 1 7.4492746614865206e+00 -3.6712424620633826e+00 1.1894176938225556e+00 1 2 -1
4000 1 1.9451800351179287e+01 -3.1132303695470558e+00 1.0506306588237891e+01 3 2 -1
6169 1 2.2150444721580641e+01 -3.9654910315471907e+00 1.1064677261483167e+01 4 -4 3
7923 1 2.4303485278174414e+01 -4.9367635340280520e+00 1.0587149038081144e+01 2 0 1
7710 1 2.6422979770963167e+01 -3.6815811721159717e+00 1.1820062866185621e+01 1 3 1
5375 1 7.5241411367666924e+00 -2.1711491656753279e+00 1.0589218862601053e+01 1 -6 -2
633 1 9.5226663107743512e+00 -1.6632921999481027e+00 9.1252283725584373e+00 3 -6 3
3944 1 1.3243138375945360e+01 -1.0724689958457905e+00 1.0563650178415974e+01 0 1 1
2674 1 1.5765443604694360e+01 -3.2042157546057659e+00 1.1306366594592909e+01 2 -7 0
1796 1 1.7647207548777821e+01 -1.1957389542297543e+00 1.0402649153784603e+01 -3 1 -1
5115 1 2.2608942147725379e+01 -1.5376859326133081e+00 1.1054877653930751e+01 2 3 0
4615 1 2.4296300725032122e+01 -7.1334544587790294e-01 9.5375846410132414e+00 0 5 1
1498 1 2.5891069849893341e+01 -5.3336048768859365e+00 1.8124770778496444e+01 -3 7 0
3116 1 7.9567743411028733e+00 2.2374052907085407e+00 1.0368623025709699e+01 6 -2 0
186 1 1.1595067116507416e+01 3.0712454747848952e+00 1.0418337080882859e+01 2 -2 -5
922 1 1.1378573227057764e+01 5.4440549029231544e-01 1.0254562836394246e+01 2 0 1
3048 1 1.6246145364161698e+01 9.9726093222981849e-01 1.0290242992775644e+01 -1 -2 2
6309 1 1.9208057377669977e+01 5.2284175634740393e-01 9.8355976922926533e+00 4 0 0
3848 1 2.0558454677995634e+01 -9.9822072550027219e-01 1.2504239803881610e+01 0 0 -1
2850 1 2.1933466112859275e+01 9.7658150501594321e-01 1.1264922743390523e+01 -2 -2 3
7073 1 2.4502728459477680e+01 1.3760076974289124e+00 1.1048973844123449e+01 -2 0 0
2879 1 8.2410468902379428e+00 5.1578866778966876e+00 1.1234715596249600e+01 1 -4 -2
558 1 1.0728338172033531e+01 5.1056738988528352e+00 1.1757375950111113e+01 3 -3 0
3516 1 1.4301972327981131e+01 3.5855956329814269e+00 1.1286490616529168e+01 -1 -4 -1
1931 1 1.6657055845850625e+01 3.3786891902358018e+00 1.2720512474215784e+01 3 3 2
2252 1 1.7340821483672602e+01 4.1329190700737932e+00 1.0278282513564855e+01 1 1 4
3929 1 1.9260145489301351e+01 3.6968332472308330e+00 8.7360096810233738e+00 4 0 -2
3190 1 2.0895531582151634e+01 3.4603459333915172e+00 1.0712686400135180e+01 2 -2 -2
6515 1 2.3841630138619490e+01 4.3250114966423574e+00 1.1509622427840377e+01 -4 2 1
4071 1 2.6114729872270473e+01 3.2616966330313826e+00 1.1388458836967974e+01 2 -1 2
5281 1 9.5097284278992227e+00 8.2756069307311932e+00 1.0333138132144370e+01 -2 4 1
4529 1 1.0063974097640067e+01 7.4868344123341828e+00 1.2570254442795695e+01 -2 -4 -5
1880 1 1.4760293654852966e+01 5.5827400649015058e+00 1.0138951636722451e+01 0 0 -4
6633 1 1.8275670146871605e+01 9.0893973384483182e+00 1.0783269121641810e+01 4 0 1
2436 1 1.7608729591414995e+01 6.8160904132826197e+00 9.1293097741169440e+00 1 3 4
935 1 2.1477656351772090e+01 7.0672632012300038e+00 1.1832330412652894e+01 -1 0 2
6783 1 2.0128235416646319e+01 5.9307920429274894e+00 1.0106627808709957e+01 -4 -4 -4
4537 1 2.4569751274689210e+01 6.5322725989453563e+00 1.0942990558979588e+01 0 3 -1
1332 1 8.0204615464384741e+00 9.7801854181828620e+00 1.2365509783198762e+01 -5 -2 -3
459 1 2.0818583971062850e+01 -4.4637016709255040e+00 1.3769950936355030e-01 0 -3 -3
7021 1 1.2409404121353106e+01 8.0186192732583539e+00 1.1435120284669914e+01 3 7 -5
5257 1 1.5735587661615726e+01 9.9780958019554564e+00 3.4495715016555986e+00 1 -4 4
1483 1 1.5186249409407361e+01 7.4403771753458869e+00 1.1393168929417355e+01 5 0 -4
3589 1 2.4839490998674961e+01 4.9533612958012387e+00 2.4435939038083763e+01 -8 3 3
2304 1 1.4854128932140195e+01 -5.7724652976359971e+00 2.0511968981985767e+01 1 1 -1
5070 1 2.3540190410878569e+01 -5.5215160877464937e+00 2.5059310809152976e+01 -3 6 0
1073 1 2.3079583961140692e+01 8.2862979249761395e+00 1.0320156913999663e+01 -4 0 -1
6570 1 7.9739896153598355e+00 -2.7988595841498642e+00 1.3304931672700707e+01 -4 4 -6
5741 1 2.1665082606091708e+01 1.0043654940165506e+01 1.7766808682882314e+01 -5 0 5
7464 1 1.4355405471173469e+01 -4.1610436668587418e+00 1.4151397675728578e+01 -1 2 -4
1190 1 1.7380079449938297e+01 -4.4682739191250915e+00 1.2602622733701709e+01 3 -7 -2
5405 1 2.1215374713428560e+01 -3.8113487934701817e+00 1.4010171217216465e+01 1 11 -2
7973 1 2.4608625055164403e+01 -4.9445059941641691e+00 1.3996273655980163e+01 4 -1 2
125 1 2.4083150895425756e+01 -2.4877646441625538e+00 1.2579608016593271e+01 -3 0 -1
434 1 1.8030907673909738e+01 -5.7041946320017338e+00 1.4903110883992825e+00 3 -2 1
5642 1 7.6225723811479487e+00 -1.2606649961342065e-01 1.3180148573114248e+01 8 -3 5
3427 1 9.5979703296983381e+00 -1.5401034212695919e-01 1.1641748238773543e+01 2 4 -1
1438 1 1.0880254154810842e+01 -1.2306259929755861e+00 1.3607472669389853e+01 -3 -1 3
457 1 1.3652742771731383e+01 -2.5036078131179234e+00 1.2425943620981050e+01 4 0 -3
402 1 1.7052139981000014e+01 -9.8766459224997050e-01 1.2768881959784414e+01 3 -3 -1
7110 1 1.9506049211679962e+01 -3.1253452697955071e+00 1.2694641180335125e+01 0 0 1
7576 1 2.5517105378934005e+01 -6.8003373980566373e-01 1.2423242431464214e+01 3 -3 4
2911 1 9.5487023768912138e+00 9.7509465700898179e-01 1.5011044777658269e+01 1 0 1
7776 1 1.1687272110129665e+01 1.7765725247350943e+00 1.3880079240373222e+01 -1 0 2
6066 1 1.3275482249579674e+01 -7.4535851340765813e-01 1.4087942923086477e+01 3 2 0
2373 1 1.3489322069048757e+01 8.8578365657750080e-01 1.2206113796427509e+01 1 2 5
694 1 1.5863234145246247e+01 1.1543507752267148e+00 1.2494042449520119e+01 -3 -3 0
1550 1 1.8830519837191119e+01 4.6663916916537573e-01 1.3292702965023377e+01 -2 -3 2
5420 1 2.2279874354858851e+01 -3.3394049466154474e-01 1.4225814229840420e+01 0 0 2
2954 1 9.6860705193625005e+00 2.4219797847821631e+00 1.1915331201241962e+01 -1 0 6
5059 1 1.1384280613231786e+01 4.3390652173855138e+00 1.3877025405805208e+01 3 3 4
7202 1 8.0781740920199088e+00 3.0418049416665109e+00 1.4016006376287052e+01 3 3 3
5046 1 1.3645899457440715e+01 4.7221807157288964e+00 1.3256721564531230e+01 0 4 -8
4748 1 1.4695314160420619e+01 3.4429682438002693e+00 1.4748296533655267e+01 4 1 -2
1331 1 1.8785284061057204e+01 2.2382106423136872e+00 1.1368796223518006e+01 7 1 -2
6286 1 1.9458303199606426e+01 4.3008935981766978e+00 1.3050727006799862e+01 4 2 -2
3272 1 2.2964629066572144e+01 2.3329433179518393e+00 1.3284695035337656e+01 4 2 2
547 1 2.5196535072843137e+01 4.1732486065600511e+00 1.4125744770491997e+01 3 1 -5
6201 1 8.1036785535457145e+00 6.1398568436610894e+00 1.3631544790101804e+01 -3 -5 -1
2276 1 1.3562034143509781e+01 7.3153663812842638e+00 1.3601400003012699e+01 0 -1 -3
5498 1 1.1751947953656060e+01 6.7763961307185383e+00 1.5230404957651279e+01 -1 4 -1
3890 1 1.6263001237859086e+01 5.6253047861340146e+00 1.3180131116896188e+01 5 1 1
7085 1 1.8153560274086200e+01 6.2365300745713057e+00 1.1949733918313008e+01 -1 -3 1
2590 1 2.1734249340610504e+01 5.0465431302789714e+00 1.3030525053825581e+01 4 -2 1
3512 1 2.4174879810896684e+01 7.0681343195881965e+00 1.3299754088938281e+01 -2 -5 -1
6618 1 8.7578185775907791e+00 8.8653223887844188e+00 1.4945198189572363e+01 9 1 1
3601 1 1.1049903254778807e+01 9.1508385333672653e+00 1.4297862225262342e+01 0 -2 -4
2615 1 1.6719254381095212e+01 8.8584792017416412e+00 1.3169282892817543e+01 1 4 0
849 1 1.9583724223141942e+01 8.0688540007257981e+00 1.2918054932917766e+01 2 2 -2
3774 1 2.1437169232868463e+01 1.0055784261220783e+01 1.2561882876062272e+01 5 2 -3
1280 1 2.3731976587436275e+01 9.6082032807156690e+00 1.3252281724547444e+01 -1 -2 2
6055 1 1.0664078257929356e+01 7.7011653535306799e+00 2.5093981516527386e+01 -2 2 -1
4968 1 9.9885960168230206e+00 -5.0646383904464383e+00 1.7144109337713328e+01 0 3 -2
3179 1 1.1315864766866287e+01 -3.9719600230145731e+00 1.5542816768257488e+01 -5 2 4
589 1 1.5869830150616995e+01 -4.8851005026437093e+00 1.6298852794489502e+01 -3 2 -1
6834 1 8.1084854308030199e+00 -1.5485349310026333e+00 2.4217927774843513e+01 -1 -2 -3
5705 1 1.9209100495970105e+01 -3.2939186439615891e+00 1.5785373952349362e+01 5 -4 0
5854 1 1.7922645521022808e+01 4.8880500356360557e-01 2.6158678349460040e+01 4 0 0
105 1 2.5904309873907732e+01 -3.0980606074856678e+00 1.5366320437048012e+01 4 5 1
3292 1 7.7682875891753707e+00 -3.8699468789829190e+00 1.6547749794788597e+01 2 2 2
5150 1 9.6492137838406791e+00 -2.2315201263936197e+00 1.5318617127528826e+01 0 2 0
529 1 1.3250834181076875e+01 -3.0860361323063397e+00 1.6659592817682281e+01 0 -1 -6
3627 1 1.5125068769931078e+01 -1.3302751211089054e+00 1.5410812417559118e+01 1 -2 0
5752 1 1.7009079725927496e+01 -2.8123266458822314e+00 1.4462888190062884e+01 3 3 -1
2058 1 1.8240097692412220e+01 -1.0464357759181961e+00 1.6326682297820149e+01 1 5 -1
5627 1 2.3218793976283767e+01 -2.2858024059417152e+00 1.4679197541191920e+01 -4 -1 -2
4290 1 2.4716283727126996e+01 -8.0982294997386273e-01 1.6719199987421121e+01 1 -3 2
3571 1 2.6591323602068304e+01 -5.0801246790930383e+00 2.6272959002733902e+01 1 -5 0
2083 1 1.0230745551996540e+01 -7.8846916721863547e-01 1.7337179621781271e+01 2 -3 0
1486 1 1.2472840185202266e+01 -4.8295780234978380e-02 1.6276229697262178e+01 -6 1 5
3018 1 1.5750417072864694e+01 9.7547578518773825e-01 1.4923733205834884e+01 -1 -2 -3
7000 1 1.8139902070625510e+01 1.3556950789330138e+00 1.5516222069027105e+01 4 3 4
7547 1 2.0464118395631701e+01 2.3035211476253750e+00 1.4218890894268865e+01 0 -2 0
6707 1 2.4467764799403351e+01 9.3031415285121000e-01 1.4868278681935026e+01 -3 7 0
1289 1 2.6766430457031444e+01 2.0831265483921371e+00 1.4672736580873728e+01 -2 -1 0
2639 1 1.0298597089657500e+01 2.7780434597960326e+00 1.6784555569768347e+01 0 0 3
6945 1 1.2920860220209271e+01 2.4810336507475785e+00 1.5939603147233171e+01 9 -4 -2
4394 1 1.6001593819440515e+01 4.7862692133869302e+00 1.6455205752350842e+01 3 -3 5
467 1 1.7999000375501645e+01 3.8918006846241475e+00 1.5154518916405324e+01 -7 3 -1
5016 1 1.9684440743900154e+01 4.1357670193742990e+00 1.7536083043375207e+01 0 3 0
2223 1 2.3989095636879664e+01 2.4751238379429417e+00 1.6681596430770902e+01 -2 4 1
5153 1 2.2986542018669901e+01 9.2315840507828852e+00 2.1013883508024627e+01 -2 -3 3
4793 1 9.6396534599377510e+00 5.0407701310306532e+00 1.5419366894036383e+01 -5 1 6
28 1 1.3770786041031716e+01 6.0966383315328176e+00 1.6351503703322834e+01 2 -2 4
5122 1 1.6772764957133592e+01 6.9961999122254124e+00 1.4861293932975459e+01 5 6 -2
1958 1 1.9044312544862869e+01 6.1126180282352358e+00 1.6319178042360122e+01 -1 6 7
5224 1 2.2965683410790174e+01 4.6119501619575392e+00 1.4950812691408077e+01 1 -3 1
2650 1 2.6119511669475678e+01 6.7765555702836480e+00 1.5038999389673284e+01 -3 1 3
309 1 2.4507507009906274e+01 5.3327924438030720e+00 1.6865500873851921e+01 2 -2 2
4165 1 7.6741958486495907e+00 6.8589414370028408e+00 1.6116462646914322e+01 -6 0 2
6018 1 1.4524677488522041e+01 8.8478967103436599e+00 1.5213315530817486e+01 2 -2 -1
4579 1 1.6653773537280252e+01 9.3120747084957607e+00 1.6625512834642159e+01 3 -3 3
16 1 1.9473270459048216e+01 9.8529617958203488e+00 1.7309466108880581e+01 1 1 -1
3152 1 1.9037492906876388e+01 8.4441233273730028e+00 1.5291181457862491e+01 -1 2 6
6685 1 2.1939903363431501e+01 7.6194804949329882e+00 1.4669827436679329e+01 2 6 -4
936 1 2.3898411425951306e+01 7.0145089216130607e+00 2.4340196783577092e+01 -2 -1 -4
2686 1 8.6963552389889607e+00 9.7273060724800189e+00 2.5782881499992751e+01 -2 0 -1
4742 1 2.6334502918105141e+01 8.1434297829305038e+00 1.7086594513129640e+01 -1 -3 3
1597 1 1.9222617874019313e+01 8.5789108798403060e+00 2.5071986081590001e+01 0 0 4
5684 1 1.3944713581703567e+01 -4.9264690279357986e+00 1.8179311707462769e+01 4 5 -5
1623 1 1.9228959696084331e+01 -4.0143963079648310e+00 1.8653264962540543e+01 -3 0 -1
5034 1 2.1611273401143741e+01 -4.7204686500564907e+00 1.6742775412097753e+01 -5 5 -1
3469 1 2.4270394505406443e+01 -3.1180417540146657e+00 1.7339840782958262e+01 7 -6 2
1871 1 7.9176615789790192e+00 -2.8222469029456612e+00 1.8633441142642258e+01 -1 1 -3
3727 1 1.0312167640213111e+01 -3.9321703309751475e+00 1.9376202128645822e+01 1 -2 3
3997 1 1.2086399021719313e+01 -2.1613362717061055e+00 1.8564642713958872e+01 -3 3 -3
7510 1 1.5184784590103956e+01 -1.4640541893823755e+00 1.7738504629048087e+01 4 1 -2
1300 1 1.6929871482783888e+01 -3.1097987191438419e+00 1.7778032273600484e+01 4 -3 0
7099 1 2.0763338779804140e+01 -2.1222565726962017e+00 1.9421984776932877e+01 4 -11 3
7189 1 2.1859732462715485e+01 -2.1783154730696292e+00 1.7304679485866160e+01 2 0 -1
6009 1 2.0666886936128471e+01 -4.0793861176845336e-01 1.5984180399098292e+01 4 3 -5
5844 1 9.2127609420664314e+00 -9.0110096172068044e-01 1.9390190493441779e+01 4 -3 -2
1118 1 1.4750284986700343e+01 1.3862755265020068e+00 1.7399315215675411e+01 3 -4 1
5870 1 1.3306047690229361e+01 6.3102515550595673e-01 1.9039370527298193e+01 7 -1 -2
4198 1 1.8616669870776889e+01 -1.8186062589065966e-01 1.8601081935976246e+01 0 0 -5
4880 1 2.1056791417598816e+01 8.4978063380577495e-01 1.7789648261047240e+01 0 0 1
5076 1 2.3199277105374740e+01 2.0209488098068995e-01 1.8348857017303569e+01 2 0 3
1996 1 2.5526768742128088e+01 4.2261858745552594e-01 1.9603093065517044e+01 0 0 1
3214 1 7.8951482842682230e+00 7.5103635586370086e+00 2.4413212663107188e+01 -4 0 5
7813 1 1.1052169553354751e+01 1.3515143294273164e+00 1.8664008758777307e+01 3 2 0
3940 1 1.2561265457517601e+01 4.5409235195636199e+00 1.7636180607222641e+01 3 -7 7
1503 1 1.6203882533005835e+01 3.3634669303453073e+00 1.8142743579145318e+01 -2 -1 2
4014 1 1.8142584530960129e+01 2.1477152035010167e+00 1.7780313314606534e+01 3 -2 0
7514 1 2.1342757651133809e+01 2.8649981232486326e+00 1.6334617058882266e+01 2 -2 -1
1417 1 2.2020776318351480e+01 5.0903367295141848e+00 1.8822491598415720e+01 -2 2 -4
2641 1 2.3441719781813013e+01 3.1224598886865031e+00 1.9057330291947192e+01 -6 7 2
7653 1 8.1490792003165851e+00 9.8535894722696487e+00 2.2167229339355625e+00 3 4 2
2519 1 2.5635638145276559e+01 4.1157325777348781e+00 1.9648528905785966e+01 2 4 1
7854 1 7.7972910406020155e+00 6.5645627332065750e+00 1.8653724422526476e+01 2 0 3
3915 1 1.0478783990300684e+01 5.6840173286763687e+00 1.7625291630723662e+01 4 4 4
4783 1 1.1325402885795423e+01 8.2315132894804890e+00 1.7413849063200590e+01 -3 -1 -2
6420 1 1.6696219361957326e+01 6.8113801859968053e+00 1.7930173108438172e+01 0 8 1
4578 1 1.9080853808367422e+01 7.5982347243856498e+00 1.8375366679924777e+01 8 -5 -3