LAMMPS data file via write_data, version 16 Mar 2018, timestep = 2000000

8000 atoms
1 atom types

6.5989126465971815e+00 4.6950740198239913e+01 xlo xhi
-6.9433333578736729e+00 6.0477554622516422e+01 ylo yhi
-9.9357960259217037e-01 5.4464381247420306e+01 zlo zhi

Atoms # atomic

7217 1 7.0592163388204643e+00 8.5672043063948511e-01 1.0698194037626441e+01 2 -3 -3
2836 1 1.8851396793923463e+01 3.2565581280248548e+00 2.5712682502179490e+01 -1 2 2
4898 1 1.0187511794636505e+01 -6.2169293583893372e+00 1.2213208497124488e+00 1 5 3
6681 1 1.2432168936124185e+01 -6.6501297962725401e+00 1.1659600646667347e+00 -4 -3 1
6639 1 1.2973649389585791e+01 3.8098889724853837e+00 2.5834284570597436e+01 2 0 3
7860 1 1.3680727437227201e+01 -6.3726445509041163e+00 1.4096421375120659e+01 0 4 2
3527 1 2.1429349151748710e+01 -6.3093233970073603e+00 -5.9288442638827277e-01 -3 3 3
4833 1 2.3179459582856659e+01 -4.7841663109385122e+00 2.2148543377333274e-01 2 1 7
6715 1 7.7554071000905029e+00 -5.9471421411145826e+00 1.5170920858801839e+01 0 2 1
2264 1 2.0352159605804648e+01 -6.8799816857987599e+00 1.7439485366578271e+00 1 2 1
6618 1 1.3091156960426838e+01 -4.3502662139566581e+00 1.9305318610804116e+00 5 4 -1
1793 1 1.5399149435453188e+01 -1.6020824225827539e+00 3.0679078649143521e-01 -3 -1 4
6369 1 1.8425133036952005e+01 -3.2098941551896658e+00 1.8607761030697740e+00 1 0 -4
4994 1 2.1641462654597802e+01 -3.3341982245244428e+00 1.5685217522933348e+00 5 -1 -3
6421 1 2.5223429844921778e+01 -3.2958238541598233e+00 1.3815103045904360e+00 -1 2 0
5788 1 1.9006854602971082e+01 -5.9610020462515001e+00 1.5257929650541975e+01 -5 1 -1
2919 1 9.9584131047844338e+00 -1.8123964388449965e+00 1.7070058816984974e+00 4 0 1
725 1 1.1835294790158091e+01 5.5869019462901903e-02 2.0240698000086104e+00 4 -3 -1
2985 1 1.7200350577949983e+01 2.2495304774559521e-01 -1.4406630463703096e-01 1 -2 1
1392 1 1.9262165717559668e+01 -8.9008514704146169e-01 9.5913038741834278e-01 -4 2 8
7084 1 2.0320703393758691e+01 -2.5225194835943041e+00 -4.3493265111434465e-01 -5 2 3
2348 1 1.1308713923956429e+01 8.0047892648140913e+00 2.6263357354476394e+01 -2 -3 5
205 1 8.4166425792698369e+00 1.9979580257034684e+00 5.9666379996140728e-01 1 6 4
4617 1 2.0894376927506762e+01 1.0527688414816012e+00 1.2176394902885312e+00 3 4 0
2651 1 1.9123160261973570e+01 2.0919644204498713e+00 -5.0379554823857975e-01 0 2 0
1749 1 2.4675145126945132e+01 1.3715595232334259e+00 5.5526533072805218e-01 2 -2 -1
7106 1 2.1598895363027196e+01 -6.2066715758370687e+00 2.3592019986093124e+01 3 -1 1
7009 1 2.3874991135213314e+01 -6.9151486685876415e+00 2.3610356033166511e+01 4 2 -6
7614 1 1.3573187518478623e+01 4.1474744694352150e+00 2.2168394632700728e-01 6 -2 -1
5197 1 7.1205259969235382e+00 -2.9897863107936784e+00 1.6662270263197062e+01 5 3 -2
946 1 1.6985674667510956e+01 3.9239143730093211e+00 9.8096383015627353e-01 1 0 -1
2098 1 2.1103298527900847e+01 3.7039410157378487e+00 1.3546383536594973e+00 1 -3 -1
4328 1 2.5348380933702089e+01 3.7305055548849886e+00 -7.8742675578182708e-02 0 5 -3
389 1 1.0123414100153635e+01 4.9999942569221503e+00 8.5929215371186851e-01 -1 -4 1
438 1 1.0881050204770272e+01 7.4812743667209727e+00 -5.8040077687430502e-01 -2 -1 4
267 1 1.2792926195237172e+01 6.4517237413751829e+00 3.3054265664660054e+00 -1 1 -3
2986 1 1.5239239212695923e+01 5.7715858376245031e+00 1.1364495684646383e+00 3 1 4
7767 1 1.2896143613506432e+01 -5.7362925402531628e+00 1.0737013001388625e+01 4 -1 -1
3338 1 2.1155269134317606e+01 6.8765282291056593e+00 4.3974624237235194e-01 0 0 -1
6630 1 7.7250969340072428e+00 8.8092674319079620e+00 1.1333156049886575e+00 -4 -1 0
1798 1 7.1863744047698752e+00 5.9076749617850250e+00 4.8370231575506817e-01 3 -3 3
6744 1 6.9435377200432109e+00 -1.8827200517416225e+00 1.0261869963808618e+01 5 -5 -1
1262 1 1.2254561517464605e+01 5.9702851623684694e+00 1.0647028638200053e+00 3 4 1
6213 1 1.6999168200037822e+01 8.3566607512810602e+00 4.7005370034035199e-01 -1 -1 1
759 1 2.6164486293812754e+01 6.7408517331213602e-01 8.2038697285245075e+00 1 -1 -2
7602 1 1.7550793073370389e+01 -6.2298159109098084e+00 5.8207081269169980e-01 4 -2 1
1302 1 7.2534219107016380e+00 5.0965674927883331e+00 1.1158822544853829e+01 2 -3 -4
7529 1 7.3524893446286050e+00 -4.2618725351349660e+00 3.1222457220047133e+00 0 2 -7
641 1 1.5526165414531588e+01 -4.8814408355671590e+00 1.7407221835072559e+00 1 4 -1
5797 1 1.6876157004456083e+01 -6.6440493797889193e+00 1.0674067546203856e+01 -1 5 0
2231 1 1.8225181137489603e+01 -6.0658118244257784e+00 2.7832234150942869e+00 -5 4 2
3965 1 7.1344104506398587e+00 4.9707976779889371e+00 2.6437875057796692e+01 -6 0 4
1545 1 2.4890993918716138e+01 -4.1694981022425184e+00 3.7372994192679769e+00 -2 1 6
6617 1 9.7864548602243566e+00 -4.4010412657696349e+00 2.6560564186076676e+00 4 4 -2
372 1 1.4160117641968313e+01 -2.1921017440111390e+00 4.1195637370148246e+00 -6 -2 -1
4090 1 1.6389385020973453e+01 -2.9928306604611850e+00 2.8417182305499713e+00 -5 3 -1
7476 1 2.1330797165324917e+01 -5.0480685008459121e+00 3.2537387739488572e+00 0 -2 -2
114 1 2.2807108379125463e+01 -2.1152533040916621e+00 3.4449554337631900e+00 -1 1 1
3472 1 2.3123024768916434e+01 -4.1215169824040441e+00 2.6411930124155969e+01 -6 0 3
3220 1 8.7339997851410107e+00 -8.8925981210017557e-01 3.5153973831855616e+00 0 -1 6
6395 1 1.1793448457860578e+01 -2.8351282449676383e+00 3.6664613159550656e+00 0 -3 2
5849 1 1.7047799941210407e+01 -4.1619105561097314e+00 4.9994582056378523e+00 0 2 -1
3791 1 1.9494417814390602e+01 -5.5904332102499765e-01 3.2785888760271327e+00 -1 3 0
1863 1 2.2926567442409056e+01 3.5276400450889511e-01 2.7393803226436337e+00 2 5 2
7727 1 2.5310978540892602e+01 -8.6469407093396899e-01 2.2252295961107218e+00 0 2 4
1229 1 7.9972861109026621e+00 1.5370858691851641e+00 2.9341527325747858e+00 1 0 -7
4118 1 1.0420403059962895e+01 1.1632915765878380e+00 4.1187128895643905e+00 5 -6 3
7321 1 8.3097805082653888e+00 3.6516950694708061e+00 4.9019430621584448e+00 6 -1 -3
5698 1 1.4859010435557556e+01 1.5335610132067021e+00 5.5243619839045186e+00 1 -3 -2
1617 1 1.5454465214671469e+01 5.6314106011861575e-01 2.0568970378965403e+00 4 4 1
7482 1 2.0040697558597397e+01 1.6142259711524947e+00 4.7399232575839703e+00 4 1 -4
1726 1 2.2376321146803349e+01 1.3853801007495097e+00 5.0191058375443092e+00 -1 -2 1
5890 1 1.0624667355264826e+01 2.9667812928542432e+00 5.0946849535314453e-01 1 0 2
3079 1 1.2865737890524427e+01 2.4339662566670803e+00 2.1222590372510943e+00 1 1 -3
276 1 1.8183555939416461e+01 4.3905798027816569e+00 3.0842188434385021e+00 1 -3 -2
7214 1 2.0446887154983603e+01 3.7437020619243686e+00 3.9955457199593045e+00 0 3 6
7079 1 2.3497055914903388e+01 2.8160763514142619e+00 2.3864510473325744e+00 -3 3 -3
7301 1 1.6569315595637345e+01 -6.8385881452622233e+00 2.2714651039952518e+01 0 -1 1
1296 1 8.4728271107530162e+00 5.4162459630332069e+00 2.9246316090788569e+00 2 0 -3
7299 1 1.8965860806515572e+01 6.8384278382443071e+00 1.6275078945348453e+00 4 -5 -4
3208 1 2.0571260305571627e+01 7.2434906292146994e+00 3.5243265514981674e+00 2 -3 3
3811 1 2.3920408390188253e+01 6.1776254613740136e+00 2.1878575222505035e+00 -1 2 4
3586 1 2.5339201935558958e+01 7.8630852725122544e+00 1.1922252443264392e+00 4 2 0
4075 1 1.0020912369586307e+01 8.0378641103583668e+00 1.8255144985618648e+00 2 2 -3
3438 1 1.3510725589015541e+01 8.5630794950058835e+00 3.9630228028861403e+00 0 1 1
2216 1 1.6330481552909518e+01 6.3897798523487754e+00 3.4944001368562372e+00 -1 3 1
2416 1 2.6731881051943986e+01 3.0977508312792850e+00 2.3745666066152324e+01 -1 6 1
6086 1 1.2606164091810474e+01 7.9229160233223386e+00 2.4305553194498646e+01 4 3 4
1051 1 1.7807257145209618e+01 5.3450995478605368e+00 2.6314562390533325e+01 -3 2 3
1560 1 9.6339212224723596e+00 -4.2613276309061199e-02 6.8396548531600709e-02 -1 0 -1
4377 1 7.8792290835234162e+00 -3.7281212959008196e+00 1.1708616337897602e+01 5 4 0
1183 1 1.1469075518762637e+01 -4.7770862417322473e+00 4.9885470233401659e+00 3 6 -2
40 1 1.4360640894940124e+01 -4.7231296506914200e+00 4.8260949753425706e+00 0 2 -3
1439 1 2.1263144280624701e+01 8.8451894219963361e+00 1.3443809228441783e+01 4 -2 -2
6178 1 2.3960049846059395e+01 -6.4407036669867335e+00 3.6253123316525899e+00 -2 3 -2
2637 1 9.1292261970312474e+00 -3.9422917577247851e+00 6.1581456284354035e+00 7 3 3
6710 1 9.2361823526099815e+00 -1.8971763001075139e+00 8.5941795930858493e+00 4 1 1
3888 1 1.6373412721654091e+01 -6.5773953459094070e-01 6.0299309330132740e+00 -8 -1 1
1684 1 1.8137343406774100e+01 -5.8707197479649817e+00 6.8894938363729157e+00 4 9 -4
4346 1 1.9280796788030035e+01 -3.5514477223757575e+00 4.3349084205837896e+00 1 2 1
4622 1 2.0012707008154543e+01 -4.0225505534114880e+00 7.3106207647762265e+00 0 0 0
4222 1 2.1901872505579757e+01 -4.1261335030441835e+00 5.8411875667991806e+00 -1 -4 -5
4702 1 2.4377025250818498e+01 -2.5473770626899546e+00 5.6139743027759383e+00 -1 0 4
4238 1 7.1539163487835484e+00 7.4993762826321930e-01 5.7388135527323136e+00 -5 4 -4
3066 1 8.4445465020659718e+00 -1.8495486253105833e+00 5.5531390756646237e+00 1 1 2
2400 1 1.3750907833627151e+01 -3.0412932377952728e-02 3.5462187061040487e+00 -5 7 -1
2824 1 2.3153188662452592e+01 -3.4507806271552166e-01 6.2943129365213135e+00 9 1 0
2361 1 2.2638803790881322e+01 8.4446495592978277e+00 1.6311679600077618e+00 1 1 1
6194 1 1.9221426811588685e+01 4.4836606025769328e+00 1.6726294211553361e-02 3 0 9
5735 1 1.1198725666636864e+01 3.3532398053291281e+00 3.6556098586141106e+00 -3 0 4
2790 1 1.2761585879165580e+01 3.0437308642009402e+00 5.5107239562271220e+00 -3 -3 -3
5226 1 1.5070992867576047e+01 3.1946977593348542e+00 3.0787499148914605e+00 -1 -1 -1
7905 1 1.6715498005389410e+01 1.7333147914954221e+00 7.3883654876036537e+00 5 2 1
3027 1 1.6910168213134398e+01 -4.5554527060597749e-01 3.9153569139994486e+00 -4 2 -2
877 1 2.0574784578747234e+01 -2.2114744521170593e-01 7.2536780709680322e+00 2 3 1
7087 1 2.5481069663685904e+01 9.2059459713623326e-01 5.7189273795048230e+00 6 1 2
5663 1 2.5569244557073915e+01 2.5119381087043600e+00 3.9841851133989445e+00 0 2 -1
5490 1 6.7671103861287900e+00 4.8333731045881532e+00 6.5514193647453052e+00 1 -1 0
1942 1 1.0223077216970250e+01 3.9285761655833067e+00 7.5743214418656226e+00 -1 -4 3
3867 1 1.6517493824294817e+01 4.5212797893268863e+00 5.9608165387203842e+00 1 0 0
3595 1 1.7308665201330896e+01 2.4461520984548315e+00 4.6638911155828531e+00 3 2 -2
7263 1 1.9288550848832966e+01 4.9930312191623525e+00 6.2462927183119836e+00 6 4 3
1121 1 2.3782531953075061e+01 5.4462168086571072e+00 5.3494769251955310e+00 -3 0 1
5170 1 6.9720490364238827e+00 6.9558073287570075e+00 7.2931029710561326e+00 1 -7 0
7155 1 1.0534407195702018e+01 5.8546737108450486e+00 4.2586149173566383e+00 0 -4 3
7255 1 1.4423010165934329e+01 5.0010732826427162e+00 4.2152355940167299e+00 -1 0 0
7726 1 1.8325846150678821e+01 6.7864788673153438e+00 4.7520635478254212e+00 -3 -2 1
3929 1 2.1932266608694150e+01 5.5842393912103638e+00 3.8503502015510476e+00 2 0 -1
4736 1 2.3644191582236015e+01 8.0641970846966871e+00 5.9751215629138725e+00 -1 -5 -2
5817 1 2.5884718310189360e+01 5.3105709239679033e+00 3.6862339518553542e+00 1 -2 3
1846 1 9.7619557179352050e+00 9.5752120273570718e+00 5.7705949917740273e+00 0 -2 2
171 1 8.2931015766350225e+00 7.6249589833231859e+00 4.0109696623306528e+00 -2 -1 0
3652 1 1.2913551734451392e+01 9.2185795600133531e+00 6.4994747452561716e+00 -1 0 4
4167 1 2.1829498818311542e+01 8.9679833867261589e+00 4.4939936805923102e+00 -2 0 3
7940 1 2.5911039853804382e+01 -5.6261305657622502e+00 7.1025868289116048e+00 5 -3 4
5180 1 2.1275696230410720e+01 -6.9369255636679101e+00 2.5983209618958725e+01 0 5 0
2219 1 2.2955236191501903e+01 4.8962774502236162e+00 1.4190395793543553e-01 -7 -1 2
3615 1 1.6210778544814438e+01 -5.8050613713180139e+00 8.3649149341025346e+00 2 3 -2
2750 1 1.6584365865442237e+01 8.5286307466513041e+00 1.0249574511166301e+01 5 2 0
4506 1 2.1689968647164413e+01 4.6841728842881007e+00 2.6616398325288085e+01 4 0 -7
3245 1 1.5563830959310440e+01 7.9816700558637930e+00 2.6082997808732920e+01 -1 -1 -1
5041 1 2.6497387978856288e+01 2.1389791938726255e+00 1.7362861678655335e+01 -2 3 6
472 1 1.1303464782835057e+01 -2.9446199508753717e+00 7.2497937509148098e+00 -7 1 2
3119 1 9.7116392740888049e+00 -4.1220984414638240e+00 1.0035080460695237e+01 1 -1 -3
4114 1 1.3712753112144412e+01 -4.1541140860287644e+00 7.0606355507514529e+00 -3 2 -1
47 1 1.5614667826509367e+01 -3.3943345418233259e+00 8.6319305407696429e+00 -1 -5 2
3020 1 1.7507151892691443e+01 -2.7934468401428179e+00 7.1061946886589897e+00 -1 1 2
3404 1 2.0330884163507115e+01 -5.7601665081507285e+00 9.3149388453181547e+00 0 3 -5
2092 1 2.2708709245425915e+01 -4.6783450954966117e+00 8.4008706921248812e+00 8 0 -2
6492 1 2.5210276072435285e+01 -3.3964700644298023e+00 7.6419368434523705e+00 -1 -3 1
6848 1 1.1711372118259304e+01 1.2713041635534932e+00 7.2264583998594727e+00 -2 1 2
5440 1 1.1688862837028658e+01 -7.8326077677511297e-01 5.6838184843777162e+00 -1 -3 0
4871 1 1.2883950490546667e+01 -6.8574252251558931e-01 8.4452522815209345e+00 4 0 0
5537 1 1.4292892225004485e+01 -1.6208512145951106e+00 6.3139272711323988e+00 3 2 -4
3714 1 1.7184634900542367e+01 2.6424571596462165e-01 8.9235655262646265e+00 1 5 -3
5582 1 1.9008775337872201e+01 -1.5786444911391158e+00 8.3607226895788518e+00 -3 2 -6
2915 1 2.1010345150695315e+01 -1.7034068150302089e+00 5.1054118953112351e+00 6 1 4
4161 1 2.3164877285354599e+01 -1.2541793762316642e+00 8.4547699956811453e+00 -5 -2 -2
3462 1 2.6249925519356541e+01 -1.8336513751212857e+00 9.2287379443444415e+00 1 1 -4
6635 1 9.1898061530177273e+00 1.9958512664526076e+00 6.3504113500896846e+00 3 3 8
1213 1 2.3164138153950088e+01 2.9942190364415087e+00 6.4492169734157958e+00 0 -1 -4
6784 1 2.4833660252153496e+01 2.8041208220342231e+00 8.4041191449655326e+00 1 6 4
5453 1 2.6280025130464423e+01 7.5300603863466833e+00 4.8650093628249271e+00 -1 2 4
2734 1 7.0429951660053467e+00 3.5864958933218745e+00 8.6848427173218141e+00 -3 9 7
5260 1 1.2490107975602688e+01 3.6404611987070243e+00 8.6522985882375831e+00 5 4 -1
1719 1 1.6998101956342396e+01 3.5893874503724650e+00 8.9339831528651601e+00 1 0 -4
2071 1 1.9183868764026059e+01 2.5424346617973494e+00 6.9533441335311590e+00 0 -1 2
7169 1 2.1556701000711968e+01 4.2175747631584937e+00 7.9721942487020101e+00 4 -3 4
2140 1 2.3441359812026679e+01 5.7439315164324807e+00 8.1143945489675833e+00 2 2 5
5881 1 9.4260355846305757e+00 7.5669876810061769e+00 7.4235077207274411e+00 3 -2 4
7150 1 1.0845664304870056e+01 5.9425762692696935e+00 6.6194631039195828e+00 -1 4 2
6873 1 1.3940123954419992e+01 4.7981057175064858e+00 6.8483001973367168e+00 -6 1 -3
2010 1 1.9303456227040172e+01 5.9661900020020209e+00 8.5122709153635459e+00 -6 1 -2
2047 1 2.3772692103434604e+01 8.3722468994500403e+00 1.7973122599849354e+01 -3 -6 -1
7156 1 1.3063472150653411e+01 7.0740908971179817e+00 7.4869596794931699e+00 6 0 3
5871 1 1.5964844277974105e+01 8.0650098854836525e+00 7.8396994397913247e+00 0 1 1
1143 1 1.7775859691908288e+01 8.8381077891492161e+00 6.3350931664539729e+00 1 0 -3
5786 1 2.0301023533912655e+01 8.1300253966821128e+00 6.6715482095015330e+00 3 -2 -2
4549 1 2.2164298899212632e+01 7.4608332798362085e+00 8.3511442966085401e+00 -2 -3 -2
6237 1 2.6356027380269577e+01 -3.5598828168187016e+00 2.0043138255205896e+01 4 1 1
1931 1 8.4934477827849584e+00 -5.0109053760834064e+00 8.1773821685414401e+00 3 1 0
72 1 7.6230285580903390e+00 -6.1305490958553124e+00 1.2134532522565063e+01 4 2 0
1334 1 1.0958096245399325e+01 -6.7137849918905879e+00 1.1385069875479328e+01 2 2 2
7961 1 1.2018819224623540e+01 -2.7146092986206769e+00 2.9546895200857781e-01 6 -3 -2
1394 1 1.0596413765678442e+01 9.4917867208388529e+00 1.6987363852581684e+01 1 -3 8
4094 1 2.0742410806297560e+01 -5.3999882265653110e+00 1.2074723747976309e+01 3 3 -3
2031 1 1.3289384592363811e+01 -4.5272757651531936e-01 1.0814086515028221e-01 3 5 1
1537 1 1.0068265200369444e+01 -2.2110268400968698e+00 1.2089519363499155e+01 0 0 -1
5304 1 1.2020919150389567e+01 -3.8076768267995837e+00 9.6253517134390414e+00 0 1 1
1264 1 1.5486835467704836e+01 -3.6604922151094605e+00 1.1284843855593591e+01 3 1 2
4901 1 1.8341926431893171e+01 -4.3547431264204928e+00 1.0181919540222227e+01 0 0 0
4924 1 2.1420807758566220e+01 -2.5155753432188721e+00 9.4087051386490401e+00 1 -6 0
2043 1 2.2157806121758188e+01 -3.5850610732739718e+00 1.1619585105708820e+01 2 -1 -1
4768 1 2.6316994601729220e+01 -4.5078853085765491e+00 1.0842064869910001e+01 5 -3 -5
2717 1 9.2648261191599364e+00 7.5403641432515034e-01 8.8006983117336404e+00 -4 5 1
7872 1 1.1314868904090249e+01 -1.0159694835124702e+00 1.0328595119796281e+01 5 1 0
3638 1 1.5253529763445025e+01 -6.5193571612052725e-01 1.1945125985677107e+01 3 3 -3
5800 1 1.5259545040904253e+01 -1.2429648379680316e+00 9.4881422174778987e+00 -3 2 0
7325 1 1.9644023263021474e+01 -1.3369598753886933e+00 1.0942892038850884e+01 1 2 0
819 1 2.5064217775399932e+01 -5.7683363205089666e-01 1.1244521559718155e+01 4 -1 2
3540 1 9.0045649557939598e+00 2.1551299519457601e+00 1.1261884321632143e+01 5 -2 3
5125 1 1.1579120743746934e+01 1.2197882146094852e+00 1.1151041580987082e+01 -2 1 -1
7453 1 1.3318437019494606e+01 1.7706888436646295e+00 9.8221216428944036e+00 -3 2 0
195 1 1.8798935286205328e+01 8.0104496007347770e-01 1.0599009542562415e+01 -1 4 0
1658 1 1.6903319896972278e+01 1.3505269952410686e+00 1.2060867340929422e+01 6 -1 -1
2748 1 2.2093904411719919e+01 1.3058036033204594e+00 1.1320249025853807e+01 1 1 -4
5479 1 2.3718617626309328e+01 8.4276121031961271e-01 9.6265537128891872e+00 -3 -1 0
1224 1 9.1714690192794297e+00 5.2186703231888600e+00 9.3247283878617431e+00 0 -3 0
890 1 1.1101905175380629e+01 3.9883622685485136e+00 1.1018486188327980e+01 3 -1 2
6480 1 1.5183685489885834e+01 3.0762108722192920e+00 1.0774365974396606e+01 -3 1 -1
3847 1 1.9149684820230483e+01 3.5579903379780422e+00 9.7814023760208233e+00 0 -2 2
1117 1 2.0746330687564456e+01 1.5563992420102526e+00 8.9569610844454566e+00 12 1 4
1968 1 2.5736920036905541e+01 5.8664800028867976e+00 7.4881778544492583e+00 2 0 -4
3750 1 1.0002718356973872e+01 7.8305437269469085e+00 9.7333532957332896e+00 3 1 1
606 1 1.2486434491430209e+01 7.5678421294002067e+00 1.0001025793587054e+01 0 -2 -4
4189 1 1.3537784553794808e+01 5.3219652918869276e+00 1.0145898742380828e+01 1 2 -1
4087 1 1.5818167030412711e+01 5.5770435432442191e+00 8.8105069830407494e+00 4 3 3
3561 1 2.1390793429663194e+01 6.5835494053448844e+00 1.0553058882581963e+01 3 3 -2
3815 1 2.6232256467355192e+01 1.6529938661333965e+00 1.4752666209243916e+01 -3 3 5
528 1 6.7721736238611063e+00 9.8562694418426737e+00 1.0604361724012563e+01 3 6 0
3770 1 1.4327691663869414e+01 9.5785886570840688e+00 1.0847059526449408e+01 -4 -3 -1
5927 1 1.6344237064479984e+01 6.2927662954614831e+00 1.1254340578901882e+01 -5 -2 2
4684 1 1.9291094860102419e+01 8.1979689302903989e+00 9.6766615505925451e+00 4 3 -4
872 1 1.2584494040681065e+01 9.3838649738522975e+00 1.5745577719445323e+00 7 4 0
6911 1 9.0309717333957984e+00 8.0970016176695498e+00 2.5209982908752664e+01 4 2 2
613 1 2.5075025383649475e+01 8.9140480517062635e+00 1.0775507549716904e+01 5 -2 1
2556 1 1.0053372531416759e+01 -5.2755969848452260e+00 1.2993643773417384e+01 -3 -2 0
5949 1 2.6375021722458484e+01 -6.8394246692005618e+00 1.2993122124091244e+01 -6 1 6
6653 1 1.2803846590462776e+01 -4.0722976668913438e+00 1.3584089921975231e+01 0 5 4
6026 1 1.0551984598572002e+01 -4.6879800703366801e+00 -6.2409685860024522e-01 -2 4 6
809 1 1.4928070832416303e+01 -5.9294902305661736e+00 1.1871063824689845e+01 -4 0 -2
6835 1 2.4210620388539727e+01 -5.1387939110076504e+00 1.2020448539581224e+01 -3 4 -1
959 1 1.3203705522610818e+01 -2.5470769193374592e+00 1.1297707104620562e+01 2 -1 0
7583 1 1.7635275145837131e+01 -2.5397155749360110e+00 1.2063094298420435e+01 -4 1 0
4235 1 1.8722024150402138e+01 -4.5177924240099321e+00 1.3143834694912874e+01 2 -7 3
6185 1 2.4283192053969358e+01 -3.4280633828329781e+00 1.3883957497581941e+01 1 2 7
6945 1 1.3602580341052141e+01 -5.7363546329178821e+00 -6.8117681850927436e-01 8 -4 1
6583 1 9.0289783512764181e+00 6.5469099862213831e-02 1.2788197337034818e+01 -1 1 2
4177 1 1.3118387243201244e+01 1.6407898736281723e-01 1.2912677276852827e+01 0 -4 -2
7913 1 1.4951444628651695e+01 -2.6514788867060561e+00 1.3972837915408814e+01 1 2 -4
3682 1 1.8073600920800516e+01 -6.3968158141685283e-01 1.3616461475031135e+01 3 6 3
3555 1 2.1141050487136578e+01 -6.3989799807568737e-01 1.2606372653237957e+01 4 1 6
3367 1 2.3488870169057051e+01 -1.5773632794945627e+00 1.2745171415847569e+01 2 3 0
2484 1 8.2596749316115687e+00 3.8266967768360818e+00 1.2941922546054675e+01 -4 1 -3
7845 1 1.0701134314128264e+01 7.6226543286948534e-01 1.4229679103407099e+01 6 7 0
5208 1 2.1571516808755334e+01 2.9543309428298006e+00 1.3258959529079151e+01 3 -1 7
1808 1 2.0259108705392105e+01 1.0184888148200919e+00 1.4156793765433994e+01 5 0 -3
1236 1 2.3968265278103765e+01 2.4559380248341718e+00 1.3968212446067280e+01 -1 -5 -6
7435 1 2.5145080454488717e+01 2.0435252044466097e+00 1.1902189192708581e+01 -5 6 3
4137 1 7.7787821603329625e+00 -4.8098642064968615e+00 2.3640058717452376e+01 1 -2 2
6800 1 9.9208090617719424e+00 5.7997407832985921e+00 1.2049844838073255e+01 1 1 -2
5235 1 1.4378548303366587e+01 2.7166709604324897e+00 1.3205926370222937e+01 2 -8 0
1607 1 1.8773475045359021e+01 2.8776132356466526e+00 1.3721413162714692e+01 2 -2 -4
5619 1 1.7373163646343539e+01 4.3219014938438232e+00 1.2068939863156254e+01 4 2 0
7651 1 2.4514777564494853e+01 4.3754839605660063e+00 1.0133933529738787e+01 -1 0 -3
91 1 7.5680927342868527e+00 6.4999692767004138e+00 1.5605026640889982e+01 2 3 2
3026 1 8.5633432672929537e+00 8.0281128913078810e+00 1.1829232537061989e+01 -5 4 0
2684 1 1.2129494393414177e+01 3.7427227662608313e+00 1.3222236928141049e+01 0 2 -4
1670 1 1.7197397520519964e+01 7.5881999290809166e+00 1.3189268765459461e+01 0 -3 -4
3484 1 1.9375030838487305e+01 5.6072951541613865e+00 1.1677039041603512e+01 -3 0 -2
6801 1 2.2123845226856716e+01 4.2382522774111031e+00 1.0711858769508098e+01 -1 3 1
6134 1 2.6288018021624023e+01 5.3294310825044668e+00 1.1666480355882817e+01 -3 1 4
4008 1 1.2962569685297570e+01 -6.6961487219662192e+00 3.7271567362357478e+00 -4 -1 2
3221 1 1.1153681729654473e+01 -6.8331639157392594e+00 1.8458648523548511e+01 1 2 3
5104 1 1.4350892551818365e+01 5.7865885565800106e+00 1.2461023689727142e+01 1 -2 -2
1401 1 6.7564136333952218e+00 -3.6024822948842594e-01 1.3388506519415264e+00 4 -2 -1
4175 1 1.9221043425086716e+01 8.1660172766351504e+00 1.2125029923260993e+01 -3 2 3
5073 1 2.2301488777063682e+01 6.5479723179802427e+00 1.3064370717930156e+01 -1 1 1
6373 1 2.6472563705356229e+01 7.9306139191149096e+00 1.8286313547385134e+01 -1 2 6
214 1 2.4661261625378479e+01 7.1602222231639772e+00 1.2313763459261860e+01 -3 1 5
6392 1 1.5238943688783245e+01 9.4388336916332847e+00 1.3151139200131237e+01 -3 2 4
2503 1 1.1977038867984312e+01 9.1039274374327732e+00 1.2336292808612379e+01 -5 -3 1
3734 1 1.6449378220640963e+01 -6.8248782313545915e+00 1.6750926431353466e+01 1 8 5
1716 1 1.6301690892456620e+01 -5.7274623995465621e+00 1.4151624073298466e+01 -7 3 -1
5234 1 2.2701439896454939e+01 -6.1037941320061044e+00 1.5381787077552630e+01 0 5 -7
7338 1 2.4368507436956254e+01 -5.4620227857849057e+00 1.7337960461749944e+01 -1 0 -1
6941 1 1.0629912160430562e+01 -2.8333729455611101e+00 1.4421373156879685e+01 0 4 6
842 1 1.2892987574576278e+01 -3.9150972823067498e+00 1.6399618133996569e+01 -8 -1 3
6804 1 1.5376062411447789e+01 -4.3887841759829271e+00 1.5939164389412387e+01 0 1 3
1870 1 1.9537068072468209e+01 -3.9986923635052207e+00 1.6645524554554825e+01 2 -3 0
6490 1 2.0395910072994749e+01 -2.5679619613942544e+00 1.3880777228336065e+01 1 2 -5
5952 1 2.2365086479710577e+01 -3.4528347363645446e+00 1.5444066412728194e+01 1 2 0
163 1 7.8758035944317273e+00 -3.5975053752826081e+00 1.4188007857493703e+01 -2 -3 1
4070 1 9.9130316757635519e+00 -5.5097789454079038e-01 1.6084877509162485e+01 3 -1 1
4098 1 1.3026740652303786e+01 -1.3751940806141185e+00 1.4863272588068806e+01 2 -4 -5
1817 1 1.5822859690834377e+01 -3.8570351118179058e-01 1.4783375287660080e+01 -3 -5 1
5236 1 1.8575232786222621e+01 -1.5709430321066309e+00 1.5912644226087640e+01 -1 -6 -3
4689 1 2.3383149489456631e+01 5.3812499858425333e-01 1.6331204789833215e+01 -2 4 3
2405 1 2.4969865912871800e+01 -5.5064486432614768e-01 1.4585742833034910e+01 1 12 -4
3801 1 7.5319010874873698e+00 -7.5088327596690174e-01 1.6185678851257283e+01 4 3 1
6351 1 7.3633625874191129e+00 2.7333084030807058e+00 1.6567797258959221e+01 -1 1 0
2844 1 1.3298253856293211e+01 2.6978140136654165e+00 1.7144440925137300e+01 -1 -1 0
4047 1 1.4084643039392933e+01 1.3657392790369904e+00 1.5539511440622377e+01 -1 -3 1
4526 1 1.8863128526492140e+01 3.8071867559706849e+00 1.5891417627834805e+01 -5 -1 -4
2701 1 2.6283128951894152e+01 5.9463036362387101e+00 2.0678993432218586e+01 2 -1 -4
5972 1 8.6403076517442710e+00 4.5187436189559165e+00 1.7147701188417926e+01 -6 3 3
5548 1 1.0326019031660119e+01 3.1374824207771770e+00 1.4531673750264860e+01 5 -4 0
4935 1 1.4111732479487223e+01 5.0985243308612755e+00 1.6658985701789003e+01 2 0 3
1034 1 1.5347078032746539e+01 4.6788784617445280e+00 1.4503048792982833e+01 0 4 -1
2412 1 1.6558338850832214e+01 2.1851430993546028e+00 1.4651427889961294e+01 -4 4 1
2516 1 2.0704644530448622e+01 5.0622957480882658e+00 1.3608833995772276e+01 -1 -2 3
5740 1 2.0859335970670664e+01 5.0521075638782733e+00 1.5968027419515398e+01 -3 0 -4
5867 1 9.9577497946784455e+00 6.3953004113849410e+00 1.4548096235695617e+01 1 -1 0
6951 1 1.2425597910896315e+01 5.9341228208769969e+00 1.4741693869237956e+01 -4 1 -1
6568 1 1.5789844901272520e+01 8.4789368069514506e+00 1.5595918938048520e+01 -1 1 0
6560 1 1.7732063990322548e+01 5.8629491308353145e+00 1.4714847954139641e+01 -4 -3 -3
5396 1 1.8064751179817272e+01 7.4932571045749938e+00 1.6683737959737901e+01 -2 2 -1
1811 1 2.4629807359622070e+01 4.6321641968112335e+00 1.4020388153061084e+01 2 1 2
5551 1 1.6299148569158699e+01 2.3908871985983833e+00 -9.0168235768646321e-01 -2 -2 3
25 1 9.6001009201054970e+00 8.5708883236417730e+00 1.3930210563460438e+01 -5 0 1
4570 1 1.3391385653908904e+01 7.8219986641720460e+00 1.3597256286752282e+01 0 3 -7
4433 1 2.3579335479974596e+01 9.4828358787736491e+00 8.7487112200854646e+00 1 -1 2
119 1 2.0915426913102998e+01 8.5217597747807350e+00 1.5892985395799275e+01 0 3 0
2829 1 2.3448783786188507e+01 6.6436971340979394e+00 1.5899330749674149e+01 -1 4 -1
6179 1 7.8311352853833904e+00 -5.4558861464117285e+00 1.7731801035575440e+01 -3 4 4
5815 1 1.1118293427309570e+01 -5.7972114362127476e+00 1.6113341319035349e+01 -1 1 6
2335 1 1.4714729934172500e+01 -5.4358951974048599e+00 1.8303571676657590e+01 2 4 0
4152 1 1.4547985405787607e+01 -2.1794040306436999e+00 2.6040166773282017e+01 -2 2 5
7354 1 2.1565530684285065e+01 -4.6504699214817151e+00 1.7992540974420546e+01 2 -5 -5
2492 1 9.7604890283113104e+00 -3.8437245525679549e+00 1.6558363693656709e+01 1 -2 1
5431 1 1.0787126672463847e+01 -2.1557402363031466e+00 1.7658539376071857e+01 -2 2 0
4869 1 1.2948005703925137e+01 -3.5335987873584274e+00 1.8839486705912570e+01 4 1 1
1623 1 1.7798209753333957e+01 -4.1437251373521962e+00 1.8610981205496973e+01 -2 -1 -1
7982 1 2.0548563695987973e+01 -3.1725047119426306e+00 1.9798478621051075e+01 -1 -2 4
7911 1 2.3863448218153835e+01 -3.2375440667339985e+00 1.9233598766593079e+01 3 -1 2
7591 1 6.6802685960340824e+00 -4.4556560663728426e+00 -8.8209584128175078e-01 -1 0 6
407 1 1.3331305566730062e+01 -6.9636496017567229e-01 1.7321959402063005e+01 -2 -5 2
5811 1 1.5684496282324396e+01 -7.3848140855657274e-01 1.7808678092831357e+01 -1 2 4
2201 1 1.6781328849080449e+01 -2.8654630184079553e+00 1.6897773270565295e+01 0 -1 0
1250 1 2.1499519266515101e+01 -1.1051690723810728e+00 1.8516244292641701e+01 1 3 5
1348 1 2.3030094712890133e+01 -1.9938783849155337e+00 1.6990205722676869e+01 -6 -3 5
991 1 2.5565605434736000e+01 -1.7744649888092132e+00 1.6966270888416854e+01 4 1 -1
1773 1 9.4616285506138915e+00 1.6334279968282672e+00 1.7805315464087208e+01 4 -1 -3
6440 1 1.2225503028681416e+01 7.9129576783194810e-01 1.9060723987832610e+01 -5 -3 -3
3562 1 1.5680644849212015e+01 1.4230614328327995e+00 1.8519080322012275e+01 0 -1 -1
5153 1 1.9357587362955346e+01 -3.4100063496251920e-01 1.7820502714386564e+01 -2 0 5
2967 1 2.1133798123570685e+01 1.1609289366810902e+00 1.6068247673454163e+01 -1 3 -3
5246 1 2.4942631958948194e+01 4.8224800389375488e-01 1.8279220247282744e+01 0 -6 0
6995 1 7.9820684506653192e+00 5.0431888438565995e+00 1.9762709565249562e+01 0 -2 -2
6413 1 1.0915272498573458e+01 3.6723693694689654e+00 1.6761116984759500e+01 -3 2 0
7554 1 1.1571177400519622e+01 5.9426947496127340e+00 1.7433302927103323e+01 -1 1 -3
4908 1 1.9502687749382538e+01 2.1828386813442666e+00 1.7704232034175600e+01 3 0 5
3164 1 2.0311792185135445e+01 6.6588025479687030e+00 1.7752703043529550e+01 5 4 -3
4900 1 2.4265500687338704e+01 5.0825387952314820e+00 1.7679686620951550e+01 2 5 6
4764 1 8.6434884790936852e+00 7.5714468173174083e+00 1.9619428231579189e+01 4 5 3
2961 1 9.4268718767794475e+00 7.4264457580541698e+00 1.7445035369695827e+01 5 -2 -6
168 1 1.4710830137693724e+01 7.2896775284095554e+00 1.7697361947535718e+01 2 -3 0
1919 1 1.6490952566578255e+01 3.5145004711752676e+00 1.7211812610583035e+01 6 2 1
5841 1 1.8925603561441932e+01 4.3796813864431670e+00 2.1347436189750454e+01 -5 -2 3
1326 1 2.1322260086503555e+01 5.1412749195270298e+00 2.0716073944823098e+01 2 0 -4
5505 1 2.6122294680992418e+01 -5.5185782966304933e+00 -4.2383450689470059e-01 -2 3 2
397 1 1.2831507169181936e+01 8.7503890447265533e+00 1.6048854339589237e+01 4 -1 5
3048 1 1.5500997292885412e+01 9.6579271793036767e+00 1.8894349218371179e+01 -2 -3 1
1675 1 1.1361637038960504e+01 -1.0552323078656780e+00 2.5869362589011512e+01 -1 2 3
5005 1 7.0030364779548631e+00 -3.8672387182228096e-01 1.3904785714810487e+01 10 1 2
1207 1 2.6102809292701995e+01 -4.6702889283032967e+00 1.5768964616962798e+01 0 3 3