LAMMPS data file via write_data, version 16 Mar 2018, timestep = 2000000

6664 atoms
1 atom types

-7.4498841422471429e-02 4.7506207274127917e+01 xlo xhi
1.0392560238727810e-03 4.7425073762044107e+01 ylo yhi
6.9800161977720876e-02 4.8435406251086917e+01 zlo zhi

Atoms # atomic

5 1 1.5685200605713747e+00 1.7832282888833126e+00 6.3649792759803681e-01 0 0 0
3 1 3.3313312830478043e+00 3.0244628193192924e-01 1.4811858789300341e+00 0 0 0
7 1 5.2187373592911452e+00 1.6547955794643103e+00 2.1627661079005902e+00 0 0 0
13 1 8.3799681785498166e+00 1.3829319564866980e+00 6.3856305005291103e-01 0 0 0
281 1 1.7324394132313223e-02 2.0265268520648185e+01 5.9229337610274237e+00 0 0 0
15 1 1.1999162278311827e+01 1.8365124865816884e+00 2.2120589028399644e+00 0 0 0
21 1 1.4974130070033063e+01 1.6291846031654122e+00 1.0409413154075957e+00 0 0 0
2060 1 1.0310285586256194e+01 2.3645461475267421e+01 1.1425789486454009e+01 0 0 0
23 1 1.8631527600029528e+01 1.7820245328777828e+00 2.1931417386638650e+00 0 0 0
27 1 2.1928914660957837e+01 1.5193551965265810e+00 6.7292591790382494e-01 0 0 0
6 1 1.5740379347418993e+00 5.1749221481402889e+00 2.4872594276493043e+00 0 0 0
3460 1 2.3552093932276804e+01 9.7587207397127429e+00 2.9211410084522793e+00 0 0 0
8 1 5.0558368112022540e+00 5.2343280384566429e+00 1.0348873816507607e+00 0 0 0
10 1 6.8016494145752677e+00 3.2482340226401294e+00 1.4111329995708126e+00 0 0 0
12 1 9.8546512322233184e+00 3.4979186113032101e+00 3.0067107307384094e-01 0 0 0
16 1 1.1870938532964690e+01 5.3901126771642662e+00 6.3943569856852267e-01 0 0 0
18 1 1.3438533267567193e+01 3.5933618371718108e+00 1.3601917403761208e+00 0 0 0
22 1 1.5080582704638033e+01 5.0949062386890072e+00 2.2942306198139750e+00 0 0 0
24 1 1.8735744230969786e+01 4.9172351746787220e+00 7.5133124835425591e-01 0 0 0
3432 1 2.3650972270533437e+01 3.3142770104114381e+00 2.7347019990609049e+00 0 0 0
26 1 2.0343973871418839e+01 3.2915058866832889e+00 1.5008328009322860e+00 0 0 0
28 1 2.1857012897099548e+01 5.0294199626398743e+00 2.3878351875381085e+00 0 0 0
73 1 1.3540997357694136e+01 1.3649556367660583e+01 2.0273950923106845e-01 0 0 0
31 1 3.0805050131540033e+00 6.6853846076592145e+00 1.3866853932075713e+00 0 0 0
14 1 8.0858053013508577e+00 5.1949972304167797e+00 2.3950712390979709e+00 0 0 0
39 1 9.9740661311702592e+00 6.6251453593572354e+00 1.5680948325071835e+00 0 0 0
399 1 2.0672657900105261e+01 1.1608504279300205e-01 1.1481569383900332e+01 0 0 0
47 1 1.6848940605500623e+01 6.4802243279992382e+00 1.3207057287031909e+00 0 0 0
155 1 -6.5873697764017650e-02 1.3530581376691979e+01 2.7811904676239276e+00 0 0 0
3361 1 2.3410042070854640e+01 6.6461201515000710e+00 1.5270251977974461e+00 0 0 0
33 1 1.7451610088147826e+00 8.6687432818364343e+00 7.5611208752956394e-01 0 0 0
35 1 4.7703987417231675e+00 8.3923059224357175e+00 2.0867189580197896e+00 0 0 0
38 1 6.7958346423233715e+00 9.9811649849659982e+00 1.7096881788564076e+00 0 0 0
41 1 8.4074398347892689e+00 8.4814010702903779e+00 6.7060924363566987e-01 0 0 0
43 1 1.1845543808033240e+01 8.3564645743505199e+00 2.0547330946186775e+00 0 0 0
49 1 1.5257473661108671e+01 8.7736428918745464e+00 8.1320776991843513e-01 0 0 0
46 1 1.3390380385460084e+01 1.0233530815364956e+01 1.7353510514371970e+00 0 0 0
51 1 1.8425522522629258e+01 8.2392355862121303e+00 1.9253033545192320e+00 0 0 0
54 1 2.0271581730890912e+01 9.9588678512266764e+00 1.6209390797303436e+00 0 0 0
55 1 2.2065871713537977e+01 8.6322508895002112e+00 5.8833106842357696e-01 0 0 0
34 1 1.9574094258137564e+00 1.1893695535866645e+01 1.9946979096460340e+00 0 0 0
36 1 5.0716137606140599e+00 1.1720195062257920e+01 8.5661746904262515e-01 0 0 0
42 1 8.3831910527771640e+00 1.1870460324729613e+01 2.0498217753128238e+00 0 0 0
44 1 1.1813631951567524e+01 1.1798775174863104e+01 5.6986978644628561e-01 0 0 0
50 1 1.5531278539066644e+01 1.1838955387497149e+01 2.2287734087265307e+00 0 0 0
52 1 1.8649966587234697e+01 1.1596259668100833e+01 9.1006805148814740e-01 0 0 0
56 1 2.2154215074091688e+01 1.1689257769935457e+01 2.1587811296964272e+00 0 0 0
61 1 1.5571699135932520e+00 1.5381347164842557e+01 5.8110168386843519e-01 0 0 0
59 1 3.2876500725512576e+00 1.3742149864001183e+01 1.1832511209673282e+00 0 0 0
63 1 5.0182703694995583e+00 1.5164800581455765e+01 2.2516974871490727e+00 0 0 0
69 1 8.4518388633092343e+00 1.4946741588113968e+01 5.5261308124176489e-01 0 0 0
67 1 1.0381611862979007e+01 1.3560669288008855e+01 1.6440916184221166e+00 0 0 0
71 1 1.2018754141147854e+01 1.5336881545327605e+01 2.3287336475361688e+00 0 0 0
1679 1 2.0572961148804655e+01 2.3605864269032789e+01 1.6135060064565965e+00 0 0 0
77 1 1.5296981220290547e+01 1.5219202621598704e+01 1.0075777810003375e+00 0 0 0
75 1 1.7151679404115374e+01 1.3608056994163848e+01 1.2729085620422080e+00 0 0 0
79 1 1.8741761191142928e+01 1.5163338795316509e+01 2.4357803217211695e+00 0 0 0
68 1 1.0213843694589398e+01 1.6932589970184061e+01 1.7672610019661994e-01 0 0 0
83 1 2.1858219301155490e+01 1.5127667228422625e+01 6.3848681432838550e-01 0 0 0
20 1 1.6719167645097080e+01 3.2794978540020172e+00 2.3916016871455617e-01 0 0 0
66 1 6.7469765543341946e+00 1.6508206733912342e+01 1.2252906059606155e+00 0 0 0
1962 1 3.3409284679912403e+00 2.3467209027857439e+01 8.8372099311560781e+00 0 0 0
74 1 1.3499882767544111e+01 1.7062553079119489e+01 1.3342660089798251e+00 0 0 0
82 1 2.0355371307687644e+01 1.6757548885527218e+01 1.4908216732532589e+00 0 0 0
2061 1 1.7312343426848376e+01 2.3657368722128691e+01 1.1487125987575689e+01 0 0 0
62 1 1.5897028855370168e+00 1.8542056535477514e+01 2.2779771819347836e+00 0 0 0
86 1 3.1179018488590113e+00 2.0279631504988739e+01 1.4747737688496059e+00 0 0 0
64 1 5.0383926490881894e+00 1.8740672582993419e+01 9.3032747754764955e-01 0 0 0
70 1 8.1618452279902431e+00 1.8447202969802770e+01 2.2385545724866018e+00 0 0 0
90 1 9.9492344639298356e+00 2.0169752145831037e+01 1.7027065063605753e+00 0 0 0
72 1 1.1872187257590987e+01 1.8897202091604449e+01 7.7397925524305489e-01 0 0 0
78 1 1.5262876337975671e+01 1.8505210947710285e+01 2.2087092015315481e+00 0 0 0
94 1 1.6714395087614445e+01 2.0259410882189968e+01 1.3828919840959915e+00 0 0 0
80 1 1.8664453598599099e+01 1.8623838122979059e+01 8.6925254911273397e-01 0 0 0
84 1 2.1806191632782326e+01 1.8681709452781398e+01 2.0934778587979435e+00 0 0 0
199 1 3.4160018266214180e+00 3.5512976746964853e-02 7.2955681941138835e+00 0 0 0
87 1 1.7150589820003421e+00 2.2218446460734707e+01 8.7516672040277488e-01 0 0 0
88 1 4.9868504146976420e+00 2.1976705834617718e+01 2.1412426636071240e+00 0 0 0
3431 1 2.3602114770145555e+01 2.2974010454795746e-02 4.2789393235990030e+00 0 0 0
91 1 8.3881715991871086e+00 2.1752869556838807e+01 7.8613564497059218e-01 0 0 0
92 1 1.1897959559207221e+01 2.1836353872642118e+01 2.0881881889353866e+00 0 0 0
95 1 1.5002188640997097e+01 2.2228090483174800e+01 8.2323984166879383e-01 0 0 0
96 1 1.8564344278223725e+01 2.1952778898996776e+01 1.9331887862043056e+00 0 0 0
98 1 2.1902565072247732e+01 2.2005023184672581e+01 5.9147955201892788e-01 0 0 0
197 1 9.9563736260768865e-02 2.3510331036343957e-01 5.9742040332237520e+00 0 0 0
103 1 1.3066644854600307e+00 1.6336681312124752e+00 3.8220219921189624e+00 0 0 0
319 1 2.0135748115195753e+01 2.0362505180703039e-01 8.4836093739422722e+00 0 0 0
11 1 1.0164449830730058e+01 1.0490531037948168e-02 1.7022965332646336e+00 0 0 0
111 1 8.5550729899675062e+00 1.9786348815265040e+00 3.6874654813668570e+00 0 0 0
119 1 1.5022547096020501e+01 1.7342429686040497e+00 3.5278765187302681e+00 0 0 0
1970 1 1.6639849239867086e+01 2.3705339984354968e+01 8.5739183137705037e+00 0 0 0
474 1 1.5442289129902365e+01 1.5227732701927923e+01 1.2049158781153404e+01 0 0 0
125 1 2.1800786656224268e+01 1.9819280682381422e+00 3.7527110796788681e+00 0 0 0
1672 1 9.9087694127075672e+00 2.3575010174254633e+01 1.1466263601840040e-01 0 0 0
104 1 1.7122570983572849e+00 5.2462623037633058e+00 4.9368680297514986e+00 0 0 0
253 1 -6.4846586052581756e-02 1.3788588262607837e+01 5.9628568908656696e+00 0 0 0
102 1 3.2269537615783404e+00 3.1498347502271349e+00 2.9077218739703086e+00 0 0 0
106 1 5.1429499572908632e+00 4.9556704292861466e+00 3.4534589895946874e+00 0 0 0
108 1 6.5021835765214790e+00 3.2935120049131847e+00 4.4795935307800860e+00 0 0 0
110 1 1.0114449776010577e+01 3.5062202546826549e+00 2.7052781973965896e+00 0 0 0
112 1 8.7987203067413340e+00 5.0763328763332591e+00 4.9807155881166221e+00 0 0 0
114 1 1.1846495804155857e+01 4.9703533667119730e+00 3.6494801301693593e+00 0 0 0
116 1 1.3452991804464530e+01 3.3346385466809960e+00 4.5364676593681343e+00 0 0 0
118 1 1.7072302084149037e+01 3.4800374373820535e+00 3.0127906160158342e+00 0 0 0
124 1 2.0038734286549193e+01 3.4514158028843700e+00 4.5530931132013066e+00 0 0 0
122 1 1.8739777422532629e+01 5.2626848308025238e+00 3.5725093240296397e+00 0 0 0
126 1 2.2138388607310308e+01 5.2310478507230123e+00 4.8954492496897029e+00 0 0 0
129 1 3.6978750158333180e+00 6.9040636667880824e+00 4.3716003607079097e+00 0 0 0
135 1 6.7057403505926665e+00 7.1457093399975946e+00 3.0557899067995686e+00 0 0 0
137 1 1.0445306357113440e+01 6.7277132565527626e+00 4.2794846371592579e+00 0 0 0
143 1 1.3451567932633901e+01 6.7623682175076141e+00 2.9613927840592660e+00 0 0 0
145 1 1.7065696080794215e+01 6.7256649927367000e+00 4.3966096808864519e+00 0 0 0
151 1 2.0284622569089755e+01 6.9503813076553209e+00 2.8018953389862378e+00 0 0 0
131 1 1.6901057909800297e+00 8.2769014069156963e+00 3.7521049930543233e+00 0 0 0
351 1 4.7500421139963792e-02 1.3162834496829419e+01 8.6132921638062641e+00 0 0 0
130 1 3.2470701536219542e+00 1.0104043215165321e+01 3.0590848528186143e+00 0 0 0
136 1 6.4129942000287974e+00 1.0271160859806127e+01 4.3204361510503455e+00 0 0 0
139 1 8.6544426196472095e+00 8.5639999107978948e+00 3.7590395013209252e+00 0 0 0
138 1 1.0178925915972682e+01 1.0110698735407166e+01 2.7830314231540711e+00 0 0 0
144 1 1.3837144371635473e+01 9.9924973794983227e+00 4.2444781717333955e+00 0 0 0
147 1 1.5376833194972610e+01 8.2783547027812592e+00 3.3675361808499420e+00 0 0 0
146 1 1.7081300557657077e+01 1.0122579741425321e+01 3.1062045038884687e+00 0 0 0
152 1 2.0097994917664195e+01 1.0084204859355729e+01 4.2236026066168346e+00 0 0 0
153 1 2.1893782632331526e+01 8.3778019013229343e+00 3.8722015482895253e+00 0 0 0
134 1 5.0231725417792852e+00 1.2058670012695247e+01 3.3401230919704350e+00 0 0 0
142 1 1.1719747286151138e+01 1.1771468486164673e+01 3.7790278418444441e+00 0 0 0
150 1 1.8617182325749262e+01 1.2068758992819713e+01 3.7034988521327974e+00 0 0 0
159 1 1.5591446241635258e+00 1.5088217420753478e+01 3.5039144090005232e+00 0 0 0
397 1 1.3647991803431163e+01 2.4881360725797452e-01 1.1735818013103811e+01 0 0 0
157 1 3.1560371079053402e+00 1.3469633309092618e+01 4.3490429826947263e+00 0 0 0
163 1 6.9115231501026564e+00 1.3558333203273669e+01 2.9563182320064234e+00 0 0 0
167 1 8.4488233999461642e+00 1.5314477153986639e+01 3.5265098902707130e+00 0 0 0
165 1 9.9482966893498119e+00 1.3454028034113851e+01 4.4341426273683329e+00 0 0 0
169 1 1.1774950728034279e+01 1.5243232679958757e+01 4.7872247201188154e+00 0 0 0
171 1 1.3562464874480886e+01 1.3146609264074481e+01 2.8315836373190306e+00 0 0 0
175 1 1.5221997963270026e+01 1.5092667791842336e+01 3.5309226403102758e+00 0 0 0
173 1 1.6842631574700061e+01 1.3458773877707436e+01 4.4952784323045956e+00 0 0 0
179 1 2.0517096491731554e+01 1.3412935898826859e+01 2.9180405445137589e+00 0 0 0
177 1 1.8874203571856089e+01 1.4961696006706850e+01 5.1436534353549250e+00 0 0 0
181 1 2.1903787079464880e+01 1.5226159490479755e+01 3.7196753723238682e+00 0 0 0
156 1 9.1913000515872090e-02 1.6756002646527076e+01 4.6397372688641987e+00 0 0 0
158 1 3.2732986230413146e+00 1.6830314740567299e+01 2.9530783321208225e+00 0 0 0
164 1 6.6773222802573038e+00 1.6796371373582524e+01 4.4111362523746900e+00 0 0 0
166 1 1.0167071646371900e+01 1.6889023804578201e+01 2.6537878358614506e+00 0 0 0
172 1 1.3805481544515462e+01 1.6890168331878801e+01 4.4782982146650800e+00 0 0 0
174 1 1.7059028569660843e+01 1.6885958536013089e+01 3.1717073028937368e+00 0 0 0
180 1 2.0364947386251359e+01 1.7092036323662445e+01 4.5172233281454952e+00 0 0 0
382 1 5.1758249765702242e+00 2.1637344477638216e+01 1.0797280181796436e+01 0 0 0
184 1 3.6574308228763743e+00 2.0153120506448634e+01 4.3016494475687228e+00 0 0 0
162 1 5.2059954432447091e+00 1.8377937517179980e+01 3.3263868376413441e+00 0 0 0
187 1 6.8888402520944165e+00 2.0588628068755419e+01 3.0240484484579144e+00 0 0 0
188 1 1.0194635539758069e+01 2.0345119540943450e+01 4.1701766262173461e+00 0 0 0
170 1 1.1777749223806946e+01 1.8364370664348133e+01 3.6771071820966954e+00 0 0 0
191 1 1.3512438793928697e+01 2.0027941752314664e+01 3.0251046935423500e+00 0 0 0
192 1 1.7041276895563406e+01 2.0506698389618958e+01 4.0998446246073046e+00 0 0 0
178 1 1.8762065192707947e+01 1.8758577818900854e+01 3.5397009786990536e+00 0 0 0
195 1 2.0407972679488520e+01 2.0480364877165695e+01 2.9026053166411252e+00 0 0 0
185 1 1.5411885943443695e+00 2.1871091843164670e+01 3.7384995863333881e+00 0 0 0
1766 1 3.3803897427526155e+00 2.3478132297944875e+01 3.1046816670225947e+00 0 0 0
189 1 8.6175588854208716e+00 2.2177085639455381e+01 3.7613873160312186e+00 0 0 0
2059 1 3.6968297578603395e+00 2.3654929992767343e+01 1.1391152951858400e+01 0 0 0
193 1 1.5139804986057820e+01 2.1974874960577932e+01 3.5556205740669098e+00 0 0 0
3488 1 2.3457966414375761e+01 1.6933815081330142e+01 2.7968187751692222e+00 0 0 0
196 1 2.2015706926880878e+01 2.2144685767515238e+01 3.7229218642610835e+00 0 0 0
4 1 3.3617655811811167e+00 3.6008325240181507e+00 2.0182354343216008e-01 0 0 0
201 1 1.8777074324538812e+00 1.8067856325489591e+00 6.8067929305108041e+00 0 0 0
105 1 5.0192742362022313e+00 1.5492393349678506e+00 5.2104756415028719e+00 0 0 0
465 1 4.7764226385844308e+00 1.8554334306049956e+01 1.1984612256364395e+01 0 0 0
209 1 8.5507053145102265e+00 1.4579052823403151e+00 6.4363701855474647e+00 0 0 0
113 1 1.1569913009609548e+01 1.7320741370734531e+00 4.9255579488029007e+00 0 0 0
217 1 1.5386013578876536e+01 1.7496008920403658e+00 6.6578794801033556e+00 0 0 0
213 1 1.3618265863240248e+01 2.5767968895625576e-01 5.7965563172871049e+00 0 0 0
121 1 1.8647754172786186e+01 1.4429906863345989e+00 5.0543980815793246e+00 0 0 0
223 1 2.2244035969342466e+01 1.6973614141820383e+00 6.4531873455104449e+00 0 0 0
200 1 3.5008700052647415e+00 3.4658561983792247e+00 5.6545192806473548e+00 0 0 0
204 1 4.8934970126695685e+00 5.0813337925507680e+00 6.6125754248687532e+00 0 0 0
206 1 7.0535716687168719e+00 3.5915727143386782e+00 6.9579670641573745e+00 0 0 0
208 1 1.0298691399410673e+01 3.4843147852621303e+00 6.0328892855627112e+00 0 0 0
214 1 1.3436581054640326e+01 3.2599142750585748e+00 7.1211347036217054e+00 0 0 0
216 1 1.7054664610706961e+01 3.3019536621667904e+00 5.6053240582191908e+00 0 0 0
220 1 1.8436220369630760e+01 5.0338679044265122e+00 6.5795456985654432e+00 0 0 0
222 1 2.0449312697959812e+01 3.4166747000859945e+00 7.0266273953224943e+00 0 0 0
390 1 1.8530394744307159e+01 2.1707886217454533e+01 1.0533801952006188e+01 0 0 0
117 1 1.6736232860178003e+01 1.4743013261043567e-01 4.2391779449038731e+00 0 0 0
227 1 3.1355955580303529e+00 6.7926835993883294e+00 7.3588629695348509e+00 0 0 0
233 1 6.6506174530875866e+00 6.4631839651142222e+00 5.6198589009371736e+00 0 0 0
235 1 9.9411542741391976e+00 6.9604296870692126e+00 7.1405161292473105e+00 0 0 0
212 1 1.2016491721578983e+01 5.2803428152257403e+00 6.6760403383846496e+00 0 0 0
120 1 1.5282923241194462e+01 5.0893257017924611e+00 5.0451518454815707e+00 0 0 0
241 1 1.3570161248283606e+01 6.9254831812300202e+00 5.5626847632982983e+00 0 0 0
249 1 2.0380510913168155e+01 6.5022782728269544e+00 6.0122073850074056e+00 0 0 0
3557 1 2.3548247624220387e+01 6.6842862702386299e+00 7.0987121348417102e+00 0 0 0
229 1 1.7747936027329290e+00 8.6571829594907790e+00 6.4416135070095981e+00 0 0 0
228 1 3.3303135523471812e+00 1.0420421029592475e+01 5.5323848484608282e+00 0 0 0
133 1 5.1379522856920072e+00 8.4822126304569956e+00 5.3672735226589561e+00 0 0 0
237 1 8.2363055485184731e+00 8.4947927531945275e+00 6.2290936983345899e+00 0 0 0
236 1 1.0060408757896811e+01 1.0202145234379701e+01 6.0876209200171889e+00 0 0 0
141 1 1.1735964151220251e+01 8.6541070119527195e+00 4.9397766037556980e+00 0 0 0
245 1 1.5232315466093322e+01 8.4017021919652830e+00 6.4909706341334061e+00 0 0 0
242 1 1.3547517238820109e+01 9.9495604815216900e+00 7.3266328079884913e+00 0 0 0
244 1 1.6968027390737781e+01 9.9512209443478685e+00 5.6474130751230147e+00 0 0 0
149 1 1.8745587366515583e+01 8.2810518381623108e+00 5.1510578799669196e+00 0 0 0
251 1 2.1976151536680820e+01 8.4404271933975465e+00 6.3532713635433717e+00 0 0 0
1863 1 1.2335175203653095e-01 2.3625659855341002e+01 7.1873588642173853e+00 0 0 0
132 1 1.4042318764655763e+00 1.1962289378214120e+01 5.0397562923647623e+00 0 0 0
232 1 5.1294728813356256e+00 1.1924861839123118e+01 6.5450086383206436e+00 0 0 0
140 1 8.4588679056023679e+00 1.1549277251645087e+01 4.9478410985080252e+00 0 0 0
240 1 1.2144347277310811e+01 1.1631144363812345e+01 6.2636080946333150e+00 0 0 0
148 1 1.5235714269198093e+01 1.1729685658653317e+01 5.2397703349098901e+00 0 0 0
248 1 1.8639444145955888e+01 1.1546090904208345e+01 6.4786101335513209e+00 0 0 0
154 1 2.1849216044100260e+01 1.1508408113254648e+01 5.0199144813762171e+00 0 0 0
257 1 1.9605678289493422e+00 1.5356905173932674e+01 6.5713769572638272e+00 0 0 0
255 1 3.3822432121208568e+00 1.3413070406995976e+01 7.2977577013343549e+00 0 0 0
161 1 4.9548958539807755e+00 1.5013022755111203e+01 5.1270831240671404e+00 0 0 0
261 1 6.9717032446163687e+00 1.3362121687521773e+01 5.7368448644579333e+00 0 0 0
265 1 8.4399838138893237e+00 1.5157236557204644e+01 6.6055557978556898e+00 0 0 0
263 1 1.0363834076416602e+01 1.3402803026061262e+01 7.0861083238193805e+00 0 0 0
269 1 1.3466609318190095e+01 1.3695921492186562e+01 5.5842827560460213e+00 0 0 0
273 1 1.5262797373659041e+01 1.5089193968118806e+01 6.6091372366147585e+00 0 0 0
271 1 1.7123866580583904e+01 1.3427499224051642e+01 7.2218092315320224e+00 0 0 0
277 1 2.0438332503311926e+01 1.3299153375785046e+01 5.9734121559573650e+00 0 0 0
279 1 2.2003185554278783e+01 1.5288851206847259e+01 6.5295020084555420e+00 0 0 0
256 1 3.3345813081880396e+00 1.6927065540260557e+01 5.4170959355222985e+00 0 0 0
262 1 6.8615534118246275e+00 1.6886467576909158e+01 6.9981165157371210e+00 0 0 0
264 1 1.0217459855241705e+01 1.6742508665543340e+01 5.8286559545244083e+00 0 0 0
270 1 1.3327003589903937e+01 1.6843060780213303e+01 6.9087053220663304e+00 0 0 0
272 1 1.6897247275166990e+01 1.6713671850396072e+01 5.7305273604868781e+00 0 0 0
278 1 2.0333182456600071e+01 1.7142091405826886e+01 7.1404763153163779e+00 0 0 0
160 1 1.5850757893494256e+00 1.8740591084178835e+01 4.9258666809584701e+00 0 0 0
482 1 1.8330778145023185e+00 2.1885928716046585e+01 1.1822092583253140e+01 0 0 0
260 1 4.8731349188352580e+00 1.8564958614143460e+01 6.4523376473033540e+00 0 0 0
282 1 3.2314836903935320e+00 2.0314023155909101e+01 7.2866804157734810e+00 0 0 0
285 1 6.7161051038949839e+00 2.0079389223656737e+01 5.6801038943281776e+00 0 0 0
168 1 8.6500517263061898e+00 1.8555363299732424e+01 4.8220771082795286e+00 0 0 0
286 1 9.9407910532026502e+00 2.0261277577360854e+01 7.1473930441751170e+00 0 0 0
268 1 1.1790914197549142e+01 1.8689938156047894e+01 6.3969653521105787e+00 0 0 0
176 1 1.5396678343284327e+01 1.8799637610145787e+01 5.0894941844789656e+00 0 0 0
289 1 1.3445827036130629e+01 2.0374252184987064e+01 5.8588541162970635e+00 0 0 0
276 1 1.8397773181215676e+01 1.8684597708574575e+01 6.3666477214883210e+00 0 0 0
293 1 2.0402729558223346e+01 2.0228946318647257e+01 5.9379960432248833e+00 0 0 0
182 1 2.2169796439270222e+01 1.8784245429095403e+01 4.9933862262244286e+00 0 0 0
3613 1 2.3585745863178865e+01 2.0189432362038893e+01 7.2743368839254758e+00 0 0 0
283 1 1.8839181316817775e+00 2.2125309963002191e+01 6.2858079395267925e+00 0 0 0
386 1 1.1982117528110253e+01 2.2077647429374213e+01 1.0611488710074939e+01 0 0 0
186 1 5.1017689631060010e+00 2.2081220960552294e+01 5.2904546484854977e+00 0 0 0
313 1 1.6854122379971503e+01 3.5286118352087187e-03 9.8094763140366776e+00 0 0 0
287 1 8.3143889345462831e+00 2.1852771980153136e+01 6.2846609548801595e+00 0 0 0
190 1 1.1822872050508430e+01 2.1942318414242646e+01 5.0030426742532015e+00 0 0 0
291 1 1.5464405210515338e+01 2.2057507952547919e+01 6.3698468817436824e+00 0 0 0
194 1 1.8825939093482276e+01 2.1822140687229961e+01 5.0510928434813103e+00 0 0 0
294 1 2.2282983087358538e+01 2.1850401052033551e+01 6.2671626101013000e+00 0 0 0
299 1 1.5653868673781119e+00 1.7934864848425915e+00 9.3973673552587087e+00 0 0 0
203 1 5.2837498981198383e+00 1.8923699175865376e+00 7.7660894389056558e+00 0 0 0
30 1 6.1836394399049477e-02 1.0239515227493238e+01 1.5465611982189376e+00 0 0 0
307 1 8.2814290623734781e+00 1.6551063452533308e+00 9.0225042158801720e+00 0 0 0
211 1 1.2010449569625949e+01 1.5940735889657216e+00 8.0350112686988115e+00 0 0 0
315 1 1.5223643919985035e+01 1.7247183156869004e+00 9.3353284014628866e+00 0 0 0
378 1 2.2065526488767926e+01 1.8892717278997978e+01 1.0499311070942840e+01 0 0 0
219 1 1.8636916025702646e+01 1.9302542740886743e+00 7.8412415850429618e+00 0 0 0
321 1 2.2047329438418625e+01 1.7049963297549147e+00 9.1256076332149618e+00 0 0 0
202 1 1.7458844012726180e+00 4.7007002327000453e+00 8.0383384055488172e+00 0 0 0
298 1 3.5590130989037649e+00 3.3273569277839150e+00 8.8626120971988041e+00 0 0 0
302 1 5.3313193656396098e+00 5.1086037571702070e+00 9.1283820638507560e+00 0 0 0
306 1 1.0199710247923287e+01 3.3638879335991527e+00 8.6062393858232618e+00 0 0 0
310 1 1.1839567592813093e+01 5.2373764221623285e+00 9.1834673305966419e+00 0 0 0
218 1 1.5219155148083223e+01 4.9781176738143786e+00 7.6946156392075622e+00 0 0 0
314 1 1.6865310626393757e+01 3.5835717815434074e+00 8.8192710262875735e+00 0 0 0
318 1 1.8968145165312528e+01 5.0746052418821428e+00 9.3656321693664655e+00 0 0 0
224 1 2.2108998182628412e+01 4.9371116269341728e+00 8.0849137400629072e+00 0 0 0
323 1 1.1491716574211855e-01 6.7508154713272628e+00 8.6443845843516662e+00 0 0 0
331 1 6.8043303910053270e+00 7.0145069818993848e+00 8.4595059444188028e+00 0 0 0
210 1 8.3840970434094952e+00 5.1738638716790026e+00 8.0576572025460251e+00 0 0 0
339 1 1.3958888911649197e+01 6.7892440090225463e+00 8.8302951021633032e+00 0 0 0
243 1 1.6923870447526422e+01 6.7970753899622354e+00 7.3865942603419912e+00 0 0 0
347 1 2.0404912369024043e+01 6.9693333203959646e+00 8.5743043139241912e+00 0 0 0
327 1 1.5685827854309551e+00 8.4294478960595800e+00 9.5875247446467498e+00 0 0 0
326 1 3.2628107295242010e+00 1.0164907602688407e+01 8.7170422635110238e+00 0 0 0
231 1 4.7902165805375372e+00 8.5391578538779953e+00 7.6686719814748319e+00 0 0 0
234 1 6.9672650934836522e+00 1.0252699731286841e+01 7.4521586968534024e+00 0 0 0
335 1 8.6181586041098832e+00 8.3755835333415209e+00 9.4534082762988678e+00 0 0 0
334 1 1.0139310289262749e+01 9.9457305099572118e+00 8.5098067494750715e+00 0 0 0
239 1 1.1954529184668637e+01 8.1800979001105496e+00 7.9768390718538020e+00 0 0 0
343 1 1.5538788851880678e+01 8.5577440364235002e+00 9.5129361169023454e+00 0 0 0
342 1 1.7057411814504945e+01 1.0200606988447708e+01 8.5814364215573971e+00 0 0 0
250 1 2.0538743819614112e+01 1.0251914045202328e+01 7.3407022707238019e+00 0 0 0
247 1 1.8645519434259906e+01 8.4999127290361667e+00 7.9318900671491308e+00 0 0 0
349 1 2.2137454008613894e+01 8.3741692273022341e+00 9.4835293321828829e+00 0 0 0
488 1 1.5369577934448468e+01 2.2021527965429744e+01 1.2007209363807497e+01 0 0 0
230 1 1.6500679646486334e+00 1.1682330682898613e+01 7.7183323558502988e+00 0 0 0
330 1 4.9208766215097546e+00 1.1737677888364564e+01 9.6414907225492197e+00 0 0 0
238 1 8.4026025038875698e+00 1.2235000212041294e+01 8.0890649459403523e+00 0 0 0
338 1 1.1554530784346499e+01 1.1881561774913347e+01 9.1841110461949356e+00 0 0 0
246 1 1.5357539393244819e+01 1.1793235446076318e+01 7.6725323672869141e+00 0 0 0
346 1 1.8677945950539456e+01 1.1844230886192982e+01 9.5190943676904958e+00 0 0 0
252 1 2.2348143443460344e+01 1.1948761402064498e+01 8.2428334377829948e+00 0 0 0
355 1 1.3906215666397930e+00 1.5342185836415000e+01 9.0872178459808683e+00 0 0 0
259 1 5.0831544700135955e+00 1.5402023311825291e+01 7.7380578358754590e+00 0 0 0
359 1 6.3647383167089551e+00 1.3517885636235393e+01 8.7391941462179741e+00 0 0 0
363 1 8.4332893332195109e+00 1.5119759663178030e+01 9.2623482031445423e+00 0 0 0
267 1 1.1890791569995919e+01 1.5124303415964883e+01 7.9556661352646572e+00 0 0 0
367 1 1.3574288848560807e+01 1.3270266427381371e+01 8.7084182537218418e+00 0 0 0
371 1 1.5046360045256096e+01 1.5286238277801315e+01 9.0329490889094863e+00 0 0 0
275 1 1.8552322154483896e+01 1.5476480710981546e+01 7.8782719573026920e+00 0 0 0
375 1 2.0199092336211951e+01 1.3481511712849038e+01 8.5578757341250213e+00 0 0 0
377 1 2.2139718726055481e+01 1.5358600955319600e+01 9.1221633161194884e+00 0 0 0
258 1 1.6788749492650694e+00 1.8107746924565731e+01 7.7830153416268839e+00 0 0 0
354 1 3.5867529431658700e+00 1.6917215041259109e+01 8.7581433753014970e+00 0 0 0
362 1 1.0246152575542776e+01 1.7037739068645116e+01 8.6410295210185097e+00 0 0 0
274 1 1.5235055035997174e+01 1.8447031293411687e+01 7.7054664707938230e+00 0 0 0
370 1 1.6957217287332877e+01 1.7094996180396659e+01 8.6746204632409576e+00 0 0 0
379 1 9.4031522527535855e-02 2.0079893425817225e+01 8.3733966703503349e+00 0 0 0
358 1 5.2908068086997391e+00 1.8634308007421325e+01 9.3293936488938520e+00 0 0 0
383 1 6.8853217719208235e+00 2.0395220130626473e+01 8.4294204961278449e+00 0 0 0
266 1 8.3850119688804945e+00 1.8479170907921844e+01 7.9044939800784597e+00 0 0 0
366 1 1.2098959804430764e+01 1.8638295686226012e+01 9.1536303132812389e+00 0 0 0
387 1 1.3762748937614205e+01 2.0392885438523834e+01 8.5783722368964774e+00 0 0 0
290 1 1.6911229274126125e+01 2.0386635098711690e+01 7.2861214785051640e+00 0 0 0
374 1 1.8962687423398211e+01 1.8507290594458009e+01 9.2634507580874548e+00 0 0 0
391 1 2.0357013519168913e+01 2.0541928964157108e+01 8.4517942511317106e+00 0 0 0
280 1 2.2165681146721660e+01 1.8410860347481851e+01 8.1406621316112275e+00 0 0 0
381 1 1.4999022200434373e+00 2.1979929820946410e+01 9.4625562649720294e+00 0 0 0
128 1 9.3413669888896766e-02 1.0230516760359476e+01 4.0034918763259775e+00 0 0 0
284 1 5.2048436774486984e+00 2.2107534689067116e+01 7.7165270205222249e+00 0 0 0
385 1 8.6054917751359508e+00 2.1843376497867879e+01 9.5536811082864208e+00 0 0 0
3558 1 2.3694546525550518e+01 1.0220832186511316e+01 5.9482608659040785e+00 0 0 0
288 1 1.1723194326987821e+01 2.1833404964883872e+01 8.0873145833588183e+00 0 0 0
389 1 1.5340146925689730e+01 2.2002964992450813e+01 9.5997973268290355e+00 0 0 0
3530 1 2.3667677453852189e+01 3.6051395183701871e+00 5.8825997023450221e+00 0 0 0
292 1 1.8557099588880700e+01 2.2306694114004344e+01 7.7071286249416753e+00 0 0 0
392 1 2.2056908723674177e+01 2.1991185903795515e+01 9.4318591663523392e+00 0 0 0
388 1 1.6921043481279391e+01 2.0047170410399833e+01 9.8683476286677756e+00 0 0 0
101 1 3.2778610162691777e+00 9.5320660371147600e-02 4.1776294209624165e+00 0 0 0
372 1 1.5032301251761449e+01 1.8614224551394493e+01 1.0876844326388349e+01 0 0 0
301 1 5.2450912536846133e+00 1.4492494722664995e+00 1.0869909773290383e+01 0 0 0
305 1 1.0011492729799421e+01 9.3198368137196147e-02 1.0062521450482873e+01 0 0 0
309 1 1.2086563287644008e+01 1.7262889128783439e+00 1.0716712799055619e+01 0 0 0
297 1 3.4454837769930307e+00 4.2337058641606452e-02 9.7895648696796904e+00 0 0 0
417 1 2.0223686381042722e+01 2.0175976787237886e+01 1.1478287782647140e+01 0 0 0
1871 1 1.3476259977485677e+01 2.3484876607452982e+01 7.1477040192698444e+00 0 0 0
416 1 1.3379839960755046e+01 2.0314642162461972e+01 1.1607934261030007e+01 0 0 0
317 1 1.8669471863079682e+01 1.4700848252393623e+00 1.0849316575441852e+01 0 0 0
296 1 3.4970079137062862e-02 3.5879870247373407e+00 1.0218108875722910e+01 0 0 0
394 1 3.6017027362224496e+00 3.4057297761161771e+00 1.1230262861288312e+01 0 0 0
107 1 6.9188530852027901e+00 1.1960281157064877e-01 3.0507511741931483e+00 0 0 0
304 1 6.7283475424056931e+00 3.1907803048913679e+00 1.0132387653039917e+01 0 0 0
396 1 1.0249010117173942e+01 3.4880925462329389e+00 1.1300784170856891e+01 0 0 0
308 1 8.5378931183466538e+00 5.2143237286808599e+00 1.0522478562205169e+01 0 0 0
312 1 1.3600189276851587e+01 3.6726226481922062e+00 9.9997774588738082e+00 0 0 0
316 1 1.5242102488568241e+01 5.1597320687534323e+00 1.0985807730613171e+01 0 0 0
398 1 1.7224640230056412e+01 3.4064775138866037e+00 1.1301367187293842e+01 0 0 0
320 1 2.0451480780320910e+01 3.0880065426170726e+00 1.0089868664703111e+01 0 0 0
1774 1 1.7005884650745276e+01 2.3648873153833904e+01 2.9632246706723522e+00 0 0 0
300 1 1.7627416368131634e+00 5.2890054545975183e+00 1.0919881918795783e+01 0 0 0
325 1 3.5973820226449633e+00 6.7101649378535813e+00 9.8579920546428959e+00 0 0 0
402 1 6.7896475906314242e+00 6.7378070621991331e+00 1.1432334754677008e+01 0 0 0
333 1 1.0298156340616330e+01 6.8528075098677030e+00 1.0251383232792815e+01 0 0 0
404 1 1.3508944602311427e+01 6.7933459485116376e+00 1.1586561373624079e+01 0 0 0
341 1 1.6983877563558273e+01 6.5367029904377691e+00 1.0143635950716076e+01 0 0 0
406 1 2.0439672104480607e+01 6.7368648791236208e+00 1.1625927271850397e+01 0 0 0
322 1 2.2086598921048555e+01 5.1356148887483144e+00 1.0583241024065977e+01 0 0 0
441 1 1.6154372500786627e+00 8.3425961280755239e+00 1.2158344617899736e+01 0 0 0
401 1 3.3669309075905991e+00 9.9907877567786265e+00 1.1682152233585912e+01 0 0 0
329 1 5.0341891456506946e+00 8.3479366699373934e+00 1.0801518531234802e+01 0 0 0
332 1 6.7150484585391554e+00 9.8704473219851767e+00 9.8942961780457974e+00 0 0 0
403 1 1.0197031360262409e+01 1.0126347416735712e+01 1.1573733010508075e+01 0 0 0
337 1 1.1998400683530873e+01 8.6709858524423833e+00 1.0723528006836151e+01 0 0 0
453 1 1.5350279045320644e+01 8.5518591005154843e+00 1.2088415814618051e+01 0 0 0