LAMMPS data file via write_data, version 16 Mar 2018, timestep = 2000000

8000 atoms
1 atom types

-7.0720966607495939e-03 5.4598434768279660e+01 xlo xhi
-7.0720966605932745e-03 5.4598434768278196e+01 ylo yhi
-7.0720966574917554e-03 5.4598434768281464e+01 zlo zhi

Atoms # atomic

5 1 1.4248557413422356e+00 1.2559916097149209e+00 1.7955054944473654e+00 0 0 0
13 1 6.7917932160029499e+00 1.5278231366842130e+00 1.2655420709862346e+00 0 0 0
21 1 1.2535828976692809e+01 1.4342659499902217e+00 1.3763912786525150e+00 0 0 0
84 1 2.5010298876933090e+00 1.3633711820642691e+01 1.2958851282436248e-01 0 0 0
11 1 8.3208909513466871e+00 3.4876903845271756e-01 2.4598206336507413e+00 0 0 0
29 1 1.7684935028717874e+01 1.5121263932296796e+00 1.8613581024608044e+00 0 0 0
108 1 1.9142549475669654e+01 1.3863906233745491e+01 1.1650236313360651e-01 0 0 0
37 1 2.3292694497233537e+01 1.5393057637455785e+00 1.5498734267507184e+00 0 0 0
2227 1 1.9319253386782492e+01 2.7187352641783253e+01 8.2652486367968425e+00 0 0 0
8 1 4.1479870142399884e+00 3.8569793130224279e+00 1.3701095962860002e+00 0 0 0
10 1 5.3712317276614403e+00 2.5803749545372883e+00 2.8044482763520260e+00 0 0 0
16 1 9.5368160570846001e+00 4.0354719009713920e+00 1.3686079418446415e+00 0 0 0
24 1 1.5018738061483818e+01 4.1518347447112136e+00 1.5514774872620516e+00 0 0 0
26 1 1.6434132730456025e+01 3.0791550312223523e+00 2.8938769434772134e+00 0 0 0
32 1 2.0557495225083603e+01 4.3730020651682704e+00 1.2771501742143183e+00 0 0 0
34 1 2.1693035867110549e+01 2.8245490107682603e+00 2.6311417701302138e+00 0 0 0
40 1 2.6116744427388831e+01 4.1139507282203072e+00 1.4974534591149853e+00 0 0 0
45 1 1.3719529556348633e+00 6.8853897111833797e+00 1.2492533586209307e+00 0 0 0
53 1 6.8083016566955195e+00 6.8136959115654774e+00 1.3767817689973767e+00 0 0 0
51 1 8.3463061931818885e+00 5.5031687435180210e+00 2.6844386022387696e+00 0 0 0
61 1 1.2469573473059722e+01 6.7001728661194839e+00 1.2522670477412385e+00 0 0 0
59 1 1.3588860216555595e+01 5.5090837623922839e+00 2.8119522581427354e+00 0 0 0
69 1 1.7863596454779998e+01 6.9756036102686041e+00 1.2549417377554581e+00 0 0 0
67 1 1.9133049504673444e+01 5.5327490426506305e+00 2.8325030714866601e+00 0 0 0
77 1 2.3117511118051368e+01 7.1682733363700866e+00 1.2632946650521926e+00 0 0 0
48 1 4.1025953694608974e+00 9.7859351539117441e+00 1.4139622996670087e+00 0 0 0
36 1 2.4600794669028041e+01 2.6913804771147647e+00 2.6158920148153736e-01 0 0 0
50 1 5.3157155405500474e+00 8.4655283679173898e+00 2.7091871236536340e+00 0 0 0
56 1 9.4886650666934287e+00 9.8079001259946459e+00 1.3662430734511233e+00 0 0 0
58 1 1.0880090691416097e+01 8.3051502209777563e+00 2.8627545134506271e+00 0 0 0
64 1 1.4902026934517945e+01 9.2853299885248770e+00 1.3790381629936466e+00 0 0 0
66 1 1.6458042596996766e+01 8.3497261809490357e+00 2.5725291362614842e+00 0 0 0
72 1 2.0508369744707750e+01 9.6638938319948871e+00 1.0891140205066390e+00 0 0 0
74 1 2.2024269403775744e+01 8.5998609719044712e+00 2.8730950652147307e+00 0 0 0
20 1 1.3674576789809350e+01 2.6629912868022925e+00 3.4078901465324274e-02 0 0 0
80 1 2.6155781797052871e+01 9.5614597535226284e+00 1.1983174474918410e+00 0 0 0
2001 1 3.5725576586574759e-01 2.6988139699129139e+01 2.0480376998009722e-01 0 0 0
83 1 2.4327932473066061e+00 1.0815252564648405e+01 2.8256509737396680e+00 0 0 0
91 1 8.0336167376069572e+00 1.0928258843134545e+01 2.6990222792521452e+00 0 0 0
101 1 1.2383162762688240e+01 1.2389363794694608e+01 1.3435212411183257e+00 0 0 0
2211 1 8.0911141881133588e+00 2.7186050649782477e+01 8.0692382045130184e+00 0 0 0
109 1 1.7561261319347501e+01 1.2212804683922979e+01 1.5224196697957602e+00 0 0 0
172 1 8.3491240494354813e+00 2.4147112782509581e+01 6.9840562868093384e-02 0 0 0
117 1 2.3159172376475858e+01 1.2272641194215042e+01 9.9648627124465805e-01 0 0 0
500 1 2.6428193320065596e+01 2.5855828377628402e+01 1.2569084820802374e+01 0 0 0
85 1 1.1886649137667125e+00 1.2308187310678662e+01 1.3350418572666980e+00 0 0 0
93 1 6.8930709562738981e+00 1.2262621997370788e+01 1.2347944966505529e+00 0 0 0
2225 1 1.6688422649373340e+01 2.7056067561416672e+01 5.2602638881126955e+00 0 0 0
2009 1 5.7353296549685231e+00 2.7226827513949257e+01 -3.4860584408718883e-03 0 0 0
242 1 8.6710826237790764e-02 8.2922544510994065e+00 8.3700397174901386e+00 0 0 0
2217 1 1.1048085417427648e+01 2.7179031596850663e+01 5.3396327411497051e+00 0 0 0
496 1 2.0510823427188441e+01 2.5763379668812288e+01 1.2498145839659033e+01 0 0 0
88 1 4.0583969026921434e+00 1.4962866512693211e+01 1.4638143302401099e+00 0 0 0
2219 1 1.3611734519426319e+01 2.7031577083693225e+01 7.8805834196227389e+00 0 0 0
96 1 9.6843035484722595e+00 1.5240174739304191e+01 1.5389651832665341e+00 0 0 0
104 1 1.5052921024798939e+01 1.5065873099114620e+01 1.4401531443779365e+00 0 0 0
4161 1 2.7177236917160471e+01 2.1827652080493134e+01 1.9882323548867059e-01 0 0 0
147 1 1.9062892381137154e+01 1.6358543356859119e+01 2.8096543636540314e+00 0 0 0
112 1 2.0353500181498433e+01 1.5344922573319716e+01 1.0963692930923381e+00 0 0 0
155 1 2.4854629801879963e+01 1.6220441861553855e+01 3.2120188064314390e+00 0 0 0
120 1 2.6025060862020318e+01 1.5018050557719995e+01 1.5682012342368454e+00 0 0 0
125 1 1.3527968754893034e+00 1.7903050700441909e+01 1.4346101825203186e+00 0 0 0
133 1 7.0218943700544241e+00 1.7732945328941540e+01 1.5903341623913514e+00 0 0 0
141 1 1.2372485438765212e+01 1.7906107010426883e+01 1.4327765427260999e+00 0 0 0
149 1 1.7775355475931956e+01 1.7852415033799581e+01 1.3665113391437078e+00 0 0 0
154 1 2.1848743459235070e+01 1.8968566553394318e+01 2.7985285295846478e+00 0 0 0
157 1 2.3440411746795185e+01 1.7607704121086645e+01 1.5136865178670984e+00 0 0 0
28 1 1.9023412222116900e+01 2.8134198284814169e+00 2.5106808514698620e-01 0 0 0
177 1 1.1146376414707415e+01 2.1719053181198156e+01 1.8933557169856430e-01 0 0 0
4082 1 2.7294065435850641e+01 1.3409098259991953e+01 2.7496939505081923e+00 0 0 0
128 1 4.6054889554772425e+00 2.0458325316404444e+01 1.3893800092605224e+00 0 0 0
136 1 9.5302356630512435e+00 2.0239105292225062e+01 1.6135690814135635e+00 0 0 0
171 1 8.3657935909890302e+00 2.1767543705042947e+01 2.7225650596197104e+00 0 0 0
227 1 1.9222280651896316e+01 1.2903419685497103e-01 8.2870975359274919e+00 0 0 0
144 1 1.5216013183243550e+01 2.0597433162839344e+01 1.3925112761531517e+00 0 0 0
179 1 1.3946745333490828e+01 2.1664635493813101e+01 2.9928438661819685e+00 0 0 0
187 1 1.9442949353274429e+01 2.2115880482736006e+01 2.7409807622830185e+00 0 0 0
152 1 2.0351240644348849e+01 2.0299863290070622e+01 1.6882858952711925e+00 0 0 0
195 1 2.4534218134403812e+01 2.1736271922552763e+01 2.7933966068412732e+00 0 0 0
160 1 2.5988056385034199e+01 2.0304426508832915e+01 1.6064307066300012e+00 0 0 0
165 1 1.4801740920556978e+00 2.3352216174907600e+01 1.3643139416333281e+00 0 0 0
173 1 6.8705791191570613e+00 2.3096546652218429e+01 1.4686144978174387e+00 0 0 0
170 1 5.4101448946154251e+00 2.4304897135207440e+01 2.7176848973811731e+00 0 0 0
181 1 1.2515053270153528e+01 2.3231530592090575e+01 1.5683114563527152e+00 0 0 0
186 1 1.6579118985663719e+01 2.4712504046930643e+01 2.6454780696974418e+00 0 0 0
189 1 1.8093551282147004e+01 2.3503839288747454e+01 1.3334949086675614e+00 0 0 0
194 1 2.1998630202092318e+01 2.4522381069364567e+01 2.9145163366249052e+00 0 0 0
4421 1 2.7252362368700858e+01 5.3455406115490716e+00 1.0696385612098940e+01 0 0 0
197 1 2.3253348211632758e+01 2.3223428418620834e+01 1.2889199814631183e+00 0 0 0
235 1 2.4835969238997855e+01 1.1828595303773654e-01 8.2265785500823085e+00 0 0 0
168 1 4.2874423870311835e+00 2.5532828646502402e+01 1.1278475969599069e+00 0 0 0
156 1 2.4604776394345745e+01 1.9051642921902729e+01 6.9338340621647954e-02 0 0 0
176 1 9.3046555000262945e+00 2.5770975363998005e+01 1.5304216598957112e+00 0 0 0
184 1 1.5153298921655463e+01 2.5901645153498471e+01 1.3707879453829255e+00 0 0 0
481 1 8.2446007909014588e-02 2.1854531811161046e+01 1.1235660584604043e+01 0 0 0
2035 1 2.4566434150484792e+01 2.7161188895335407e+01 2.6306025675719513e+00 0 0 0
192 1 2.0701990536064965e+01 2.5714394709488467e+01 1.1373656519657807e+00 0 0 0
200 1 2.5858630436081647e+01 2.6014875989271395e+01 1.0167454664780002e+00 0 0 0
491 1 1.2540571702307483e+01 2.3357547174303502e+01 1.1957035471629622e+01 0 0 0
7 1 3.7406230427262557e+00 1.3336765681245057e+00 3.7435928410588253e+00 0 0 0
15 1 9.5416339982895977e+00 1.2409598431020319e+00 4.1540223256393194e+00 0 0 0
23 1 1.5025052547727402e+01 1.3715417290996950e+00 3.9893157851124155e+00 0 0 0
31 1 2.0586560084476289e+01 1.6510030120334651e+00 4.2817514814323756e+00 0 0 0
321 1 2.3072000734981155e-01 1.6370419076961408e+01 5.8533505876169096e+00 0 0 0
39 1 2.6100546261690866e+01 1.4674887538067451e+00 4.2349545017082848e+00 0 0 0
6 1 1.4473111034235908e+00 4.2721692568684864e+00 4.0788286570982208e+00 0 0 0
14 1 6.9731359425565547e+00 4.0834403261066701e+00 4.2243461176485111e+00 0 0 0
212 1 8.2656478674557050e+00 2.5076314100103132e+00 5.6309517694761402e+00 0 0 0
18 1 1.0910253522995312e+01 2.5483183508881257e+00 2.9009193407766083e+00 0 0 0
22 1 1.2355813621146959e+01 3.9495228364596859e+00 4.1345766581614125e+00 0 0 0
220 1 1.3862318719880756e+01 2.7736914812725826e+00 5.3827246721964874e+00 0 0 0
30 1 1.8093724129737453e+01 4.1763806739146716e+00 4.4447092272512645e+00 0 0 0
228 1 1.9440479467548947e+01 3.0275999460666543e+00 5.7771116264714708e+00 0 0 0
38 1 2.3470251868246805e+01 4.2748914956303770e+00 3.7510806053485952e+00 0 0 0
236 1 2.4530219393852772e+01 2.8079875593559374e+00 5.5299360193973470e+00 0 0 0
492 1 1.5504079932443272e+01 2.5873853098948086e+01 1.2104803602678190e+01 0 0 0
43 1 3.0232934960833853e+00 5.4424872782074649e+00 2.5169313706744330e+00 0 0 0
47 1 4.1797902988571831e+00 6.7252768963676219e+00 4.1345876575174652e+00 0 0 0
249 1 5.3894975193646486e+00 5.2432534247740596e+00 5.4355400569614885e+00 0 0 0
55 1 9.7448395424996654e+00 6.6116242276746853e+00 4.0209684186498205e+00 0 0 0
257 1 1.0932088071236688e+01 5.3694017415458912e+00 5.4071705839325839e+00 0 0 0
63 1 1.5216762705596233e+01 7.0585555554890718e+00 4.0912634526125577e+00 0 0 0
265 1 1.6091983414788274e+01 5.4905491534817559e+00 5.5891424483736643e+00 0 0 0
71 1 2.0594271979357057e+01 7.0647015428613402e+00 4.0687512825910437e+00 0 0 0
273 1 2.2064827117621956e+01 5.5703866670394255e+00 5.0692596848148463e+00 0 0 0
75 1 2.4892126607914339e+01 5.6051785431142838e+00 2.5780572149070169e+00 0 0 0
79 1 2.6189206471756922e+01 6.9420308267698232e+00 4.2178051493257760e+00 0 0 0
4041 1 2.7280997933534643e+01 5.7075752914131366e+00 4.9056061711754230e-02 0 0 0
244 1 2.4468056734282051e+00 7.8469275284792008e+00 5.2666229749252214e+00 0 0 0
54 1 6.9903508613713958e+00 9.3365651070513564e+00 4.1889863308481177e+00 0 0 0
252 1 8.3496989255114862e+00 7.6612019148190216e+00 5.3968326446495860e+00 0 0 0
62 1 1.2191065994705164e+01 9.6507330931674939e+00 4.1414331018615576e+00 0 0 0
70 1 1.8126387625800078e+01 9.5456249690805208e+00 4.1745732338180535e+00 0 0 0
268 1 1.9103212428828915e+01 8.1230729925836531e+00 5.8512752946094162e+00 0 0 0
78 1 2.3500309690374543e+01 9.7014727435719532e+00 4.3494133986134651e+00 0 0 0
46 1 9.8834465909979807e-01 9.3407401768558707e+00 3.8677113806149754e+00 0 0 0
87 1 3.9409588863383052e+00 1.2005400948744366e+01 4.1168827778097290e+00 0 0 0
289 1 5.5361807365312981e+00 1.0749757794856199e+01 5.2486691683151765e+00 0 0 0
95 1 9.4865113901222564e+00 1.2144805506425238e+01 4.0809863150229138e+00 0 0 0
297 1 1.0781710714184827e+01 1.0862941019560752e+01 5.3507098072677080e+00 0 0 0
99 1 1.3617988259373515e+01 1.0814609914852939e+01 2.7707020478243480e+00 0 0 0
103 1 1.4976316611885505e+01 1.2263810542248262e+01 4.0567237191277918e+00 0 0 0
107 1 1.9187756229658376e+01 1.0819063025941045e+01 2.5724688209690143e+00 0 0 0
313 1 2.1608615106230932e+01 1.0926241855580502e+01 5.3020772582040205e+00 0 0 0
115 1 2.4400248565701325e+01 1.0841357655166703e+01 2.4096385373498777e+00 0 0 0
90 1 5.5405023785230112e+00 1.3677838628851545e+01 2.6481371602731216e+00 0 0 0
98 1 1.0655483732949561e+01 1.3557767953343141e+01 2.7027443271461329e+00 0 0 0
106 1 1.6154022547623345e+01 1.3680814366412164e+01 2.9596244954706492e+00 0 0 0
308 1 1.9230440223543027e+01 1.3488818538426175e+01 5.3264956081143593e+00 0 0 0
114 1 2.1683257951692642e+01 1.3643432441237914e+01 2.4556274205428861e+00 0 0 0
111 1 2.0345899940998379e+01 1.2301092499492235e+01 3.7532190726494017e+00 0 0 0
316 1 2.4518508753268616e+01 1.3686486343787598e+01 5.5822131395425245e+00 0 0 0
119 1 2.5942135045938240e+01 1.2296757341260085e+01 4.0923410026386540e+00 0 0 0
123 1 2.5022600459139714e+00 1.6228546203749300e+01 2.7845742408752470e+00 0 0 0
86 1 1.4817859909809679e+00 1.4783214225188045e+01 4.2162123747891620e+00 0 0 0
94 1 7.0234885561707898e+00 1.5020489254179074e+01 4.1505391944689745e+00 0 0 0
131 1 8.3921220197395243e+00 1.6267149989490562e+01 2.9101587584146302e+00 0 0 0
102 1 1.2225607798221871e+01 1.4830807295383574e+01 4.1015967764371766e+00 0 0 0
139 1 1.3845370842401678e+01 1.6454235787452316e+01 3.0233604449598577e+00 0 0 0
110 1 1.7694099655906562e+01 1.4801444708669775e+01 4.1817452963482182e+00 0 0 0
118 1 2.2979140692665506e+01 1.4691962377598037e+01 4.0278858233133530e+00 0 0 0
127 1 3.9741645947337907e+00 1.7436730100378625e+01 4.3938573677250741e+00 0 0 0
130 1 5.4282816780273917e+00 1.8842001910113893e+01 3.0646521786917780e+00 0 0 0
135 1 9.9312116759543532e+00 1.7501436060675811e+01 4.1973492134156096e+00 0 0 0
138 1 1.1081093929305737e+01 1.9043946504348341e+01 2.8768320728601893e+00 0 0 0
143 1 1.5105365109990629e+01 1.8148420338096678e+01 4.3862081570595848e+00 0 0 0
146 1 1.6513649294626553e+01 1.9218194601817526e+01 2.8922445549697144e+00 0 0 0
348 1 1.9150879677275309e+01 1.9100068481838587e+01 5.5709036760022066e+00 0 0 0
151 1 2.0460940698782409e+01 1.7706217698123378e+01 4.1821639706928115e+00 0 0 0
356 1 2.4326177888484125e+01 1.8921768056211626e+01 5.3712677964715470e+00 0 0 0
159 1 2.5919142260928208e+01 1.7732688039505650e+01 4.3542307759756076e+00 0 0 0
126 1 1.5780329209141584e+00 2.0438181333338566e+01 4.2936163091397539e+00 0 0 0
163 1 2.6513058867865933e+00 2.1650633243429191e+01 2.6462687249790053e+00 0 0 0
134 1 7.0561139633582028e+00 2.0383248636979907e+01 4.2294940330752953e+00 0 0 0
369 1 5.3770418085923444e+00 2.1761337681568968e+01 5.5432444448503837e+00 0 0 0
142 1 1.2270209791747051e+01 2.0599674891977848e+01 4.2241211979261699e+00 0 0 0
150 1 1.7940812775536749e+01 2.0546393561995689e+01 4.2014551712245831e+00 0 0 0
393 1 2.2185750342913849e+01 2.1848333169645308e+01 5.5000126061199470e+00 0 0 0
158 1 2.3315542977660026e+01 2.0307932516853175e+01 4.0201825038493029e+00 0 0 0
167 1 3.8202621227171263e+00 2.3271868069109008e+01 4.1052038913423843e+00 0 0 0
364 1 2.7021629056237879e+00 2.4616847279117131e+01 5.5205775229704290e+00 0 0 0
175 1 9.7699462527508825e+00 2.3364744864872922e+01 4.0633413611459597e+00 0 0 0
178 1 1.0982963717861397e+01 2.4703280528230081e+01 2.5066166112601378e+00 0 0 0
183 1 1.5406790103514250e+01 2.3137023775898943e+01 4.1174372516300561e+00 0 0 0
380 1 1.3656382876820073e+01 2.4313283652752379e+01 5.2150937963584854e+00 0 0 0
388 1 1.9439770710373843e+01 2.4495103864668188e+01 5.5128961761208837e+00 0 0 0
191 1 2.0710805873315746e+01 2.3168954785536279e+01 4.1930271108536550e+00 0 0 0
396 1 2.4943387929960622e+01 2.4501076134381485e+01 5.4528628710593967e+00 0 0 0
199 1 2.6003179322016887e+01 2.3108499990213229e+01 3.9003952673238564e+00 0 0 0
166 1 1.6271296494290717e+00 2.5943445176079113e+01 3.8701914800511523e+00 0 0 0
486 1 8.2198856356862482e+00 2.4641438247787605e+01 1.0604930331801318e+01 0 0 0
174 1 6.5522497521150855e+00 2.5394114423567892e+01 4.4576976377135962e+00 0 0 0
182 1 1.2353081428708796e+01 2.6141473624593548e+01 3.8488784367724209e+00 0 0 0
2011 1 7.6224319188866998e+00 2.7111022467005068e+01 2.9563335016278689e+00 0 0 0
190 1 1.8236693637542498e+01 2.5790758766260819e+01 4.1204188489795994e+00 0 0 0
33 1 2.1663964851569698e+01 3.0754779988075415e-01 2.0091457817409195e-01 0 0 0
198 1 2.3339007982786747e+01 2.6028359868692394e+01 4.3645207289692509e+00 0 0 0
205 1 1.3079534512609150e+00 1.4406446961433281e+00 6.8951142374231500e+00 0 0 0
213 1 6.7483248706299825e+00 1.0733002976076040e+00 6.7631646464190558e+00 0 0 0
490 1 1.3925787601906572e+01 2.4698959512008148e+01 1.0670096227667752e+01 0 0 0
4441 1 2.7228769773909324e+01 1.1022076305031076e+01 1.1061315364925493e+01 0 0 0
221 1 1.2478699459630237e+01 1.2110430532007486e+00 6.6259922304121854e+00 0 0 0
229 1 1.7954423821434752e+01 1.4724571890424920e+00 6.7912839345132348e+00 0 0 0
237 1 2.3324902395642376e+01 1.3752540634718042e+00 6.9956594394787146e+00 0 0 0
185 1 1.6465025820796697e+01 2.2218124606810260e+01 2.5779763093350022e-01 0 0 0
204 1 2.5941898285586942e+00 2.8689071038455838e+00 5.3521069479839545e+00 0 0 0
208 1 3.9963628805460267e+00 3.8170175958514969e+00 6.7440302906774701e+00 0 0 0
216 1 9.4990682543428910e+00 4.1611267975663413e+00 6.6936369299573757e+00 0 0 0
218 1 1.0969327782989541e+01 2.6898633027310850e+00 8.0361619509156963e+00 0 0 0
224 1 1.5048880643069774e+01 3.9481799829502919e+00 7.0450836813872248e+00 0 0 0
232 1 2.0993327792969612e+01 4.3557083851826066e+00 6.9415377236428641e+00 0 0 0
234 1 2.1873618536768149e+01 2.7414622364387706e+00 8.4979420033832085e+00 0 0 0
240 1 2.6150986331963697e+01 3.8082790968307214e+00 6.8083196122748255e+00 0 0 0
2027 1 1.9653591119484410e+01 2.7140416119600562e+01 2.5058955209383167e+00 0 0 0
488 1 9.5953587683296302e+00 2.6075741440921139e+01 1.1900827036705000e+01 0 0 0
245 1 1.4639454717764444e+00 6.7862077167039789e+00 7.3055587174718051e+00 0 0 0
253 1 6.6026226399942534e+00 6.6822671389470401e+00 6.7876959435620190e+00 0 0 0
251 1 7.9396337991577441e+00 5.4669931000661265e+00 8.3909579385666220e+00 0 0 0
261 1 1.2309509498025220e+01 6.7539126480892788e+00 6.7090234400756117e+00 0 0 0
259 1 1.3751306007575531e+01 5.3249693458066760e+00 8.1785677317619143e+00 0 0 0
269 1 1.7714418066898247e+01 6.6175953762822761e+00 6.9069298211806522e+00 0 0 0
267 1 1.8999223039493419e+01 5.2573307339307505e+00 8.2987898095180554e+00 0 0 0
275 1 2.4465487036603310e+01 5.3121656102969013e+00 7.9792451661103385e+00 0 0 0
277 1 2.3092228247215903e+01 6.8634728921702859e+00 6.7790737268359678e+00 0 0 0
161 1 2.5001786470287957e-01 2.1797757676826251e+01 7.0666177525366726e-03 0 0 0
248 1 4.0647490115864366e+00 9.3702660916975251e+00 6.5708920127046131e+00 0 0 0
250 1 5.5777151596239705e+00 8.2928110076616530e+00 8.2729942495754205e+00 0 0 0
256 1 9.6110980608115053e+00 9.3590275444949089e+00 6.9634043900933982e+00 0 0 0
258 1 1.0880131306991562e+01 7.8884725672835412e+00 8.2350096938852158e+00 0 0 0
260 1 1.3718099649870052e+01 8.3034744780406093e+00 5.3184764854955269e+00 0 0 0
264 1 1.5025863081804831e+01 9.4791917690945642e+00 6.7071933312852705e+00 0 0 0
266 1 1.6360297745332485e+01 7.9884127502535893e+00 8.1604835387528585e+00 0 0 0
272 1 2.0338350767615943e+01 9.6320970786125208e+00 7.1236958597856388e+00 0 0 0
276 1 2.4790755521136592e+01 8.2108690339292671e+00 5.7219337788944848e+00 0 0 0
280 1 2.5832293209207055e+01 9.6736064140463291e+00 6.8900495964437027e+00 0 0 0
153 1 2.2029578119073431e+01 1.6533146120673024e+01 3.8340222226324723e-02 0 0 0
283 1 2.5376870119798722e+00 1.0756248578690339e+01 7.9080376181983141e+00 0 0 0
293 1 6.8238852400854189e+00 1.2120143482712244e+01 6.8220926995910496e+00 0 0 0
291 1 8.4235271198553470e+00 1.0711784608791417e+01 8.3321174686975290e+00 0 0 0
301 1 1.2205725751386774e+01 1.2316588754076935e+01 6.9283080149590184e+00 0 0 0
299 1 1.3618673314009467e+01 1.0852101023276521e+01 8.0886441886819878e+00 0 0 0
305 1 1.6349265095348088e+01 1.0864784005046650e+01 5.3010551493618285e+00 0 0 0
309 1 1.7594979631052425e+01 1.2101979173608708e+01 6.7296115960838225e+00 0 0 0
317 1 2.2817584897335177e+01 1.2240643954946915e+01 6.8307800380518451e+00 0 0 0
315 1 2.4211162181119768e+01 1.0958050609380768e+01 7.9929783682106095e+00 0 0 0
4121 1 2.7117833539032070e+01 1.6055717420853977e+01 8.0944371889941705e-02 0 0 0
285 1 1.1425953960356634e+00 1.2144982284058948e+01 6.7802062446783173e+00 0 0 0
284 1 2.6760780731704359e+00 1.3433433942492863e+01 5.7077097862859718e+00 0 0 0
292 1 8.2797783085938530e+00 1.3645015535545307e+01 5.3621440161306220e+00 0 0 0
300 1 1.3751105476686545e+01 1.3526379886826341e+01 5.5651759579591911e+00 0 0 0
314 1 2.1880241334269449e+01 1.3343067002387004e+01 8.3449764396789661e+00 0 0 0
288 1 4.3303562033524017e+00 1.4811686362144330e+01 6.8577086040436521e+00 0 0 0
329 1 5.7331769735540536e+00 1.6196676816426006e+01 5.6500659637823842e+00 0 0 0
296 1 9.4537356171492064e+00 1.4900536987443109e+01 6.9077630713521092e+00 0 0 0
337 1 1.1111051099418708e+01 1.6233421506355430e+01 5.7687655196679088e+00 0 0 0
304 1 1.5038510579021056e+01 1.5049538100583497e+01 7.0014342038545054e+00 0 0 0
345 1 1.6158274435374878e+01 1.6436533909521749e+01 5.5990042839010012e+00 0 0 0
347 1 1.9143632022599014e+01 1.6263051924205421e+01 8.0216709573917413e+00 0 0 0
353 1 2.1751590328369012e+01 1.6263613273690940e+01 5.3617650594641511e+00 0 0 0
312 1 2.0498301999904875e+01 1.4788813703262166e+01 7.0181155595336975e+00 0 0 0
355 1 2.4502324971043151e+01 1.6421357927318475e+01 8.2770697514017098e+00 0 0 0
320 1 2.5980104666230634e+01 1.5057829450789168e+01 6.9081254560374470e+00 0 0 0
44 1 2.6283020625446354e+00 8.4706472485276283e+00 1.1162413030170820e-02 0 0 0
325 1 1.5901791176588542e+00 1.7886380249444947e+01 6.8864638074730831e+00 0 0 0
324 1 2.8595643005679872e+00 1.9104301475913736e+01 5.4832966130394949e+00 0 0 0
333 1 6.7661103048901943e+00 1.7939230006775148e+01 6.8862487563284303e+00 0 0 0
332 1 8.4517816480693995e+00 1.9076703451503420e+01 5.5719306309428491e+00 0 0 0
341 1 1.2173933855382083e+01 1.7607315633778576e+01 7.1030879410824816e+00 0 0 0
340 1 1.3465945147191247e+01 1.9229792022395795e+01 5.6870149683984490e+00 0 0 0
349 1 1.7458536479289137e+01 1.7731981119798430e+01 6.8820288250917443e+00 0 0 0
357 1 2.3064461950921721e+01 1.7778665611819310e+01 6.7980963501021945e+00 0 0 0
328 1 4.0641906555106626e+00 2.0609293185780185e+01 7.1451892940622974e+00 0 0 0
363 1 2.5552492991501317e+00 2.1850602073183353e+01 8.4105668180309756e+00 0 0 0
336 1 9.6021488536413173e+00 2.0210491171464334e+01 7.1470673917436027e+00 0 0 0
377 1 1.0681552407154275e+01 2.2033245617577400e+01 5.6369085979879623e+00 0 0 0
385 1 1.6389484937098221e+01 2.1680402898925998e+01 5.4450237015990144e+00 0 0 0
344 1 1.4745992860406023e+01 2.0535852655777237e+01 6.8728420421783580e+00 0 0 0
387 1 1.9479595791389272e+01 2.1981384655328768e+01 8.6384411758561566e+00 0 0 0
352 1 2.0549816188941072e+01 2.0686691974705841e+01 6.9206912564833161e+00 0 0 0
441 1 1.1204609249146669e-01 1.1006949039396677e+01 1.1034073336226546e+01 0 0 0
360 1 2.5998259660901237e+01 2.0173596421263223e+01 6.6251960355863924e+00 0 0 0
365 1 1.2590753601682765e+00 2.3287825424708856e+01 7.0771629432875320e+00 0 0 0
373 1 6.8727696031958132e+00 2.2913229563770710e+01 6.9394902797884352e+00 0 0 0
372 1 8.2762229316744840e+00 2.4325984748444878e+01 5.7556674639200489e+00 0 0 0
381 1 1.1994362314472582e+01 2.3295446927976773e+01 6.9193152744935063e+00 0 0 0
389 1 1.8118269369064848e+01 2.2783468245078058e+01 6.7660112715817160e+00 0 0 0
397 1 2.3424218143023992e+01 2.3505309181699158e+01 6.9788157433515225e+00 0 0 0
368 1 3.9963697372363081e+00 2.5868738151199157e+01 7.0115280932679882e+00 0 0 0
225 1 1.6514180221951918e+01 3.1548280676367146e-01 5.6121780060361282e+00 0 0 0
376 1 9.4571311943616667e+00 2.5942975759933653e+01 6.6535204262045564e+00 0 0 0
386 1 1.6685983188592470e+01 2.4313281668011431e+01 7.9550194707456310e+00 0 0 0
384 1 1.4905793141120800e+01 2.5640138132014279e+01 6.6004918296019568e+00 0 0 0
392 1 2.0617476487067528e+01 2.5827915438155230e+01 6.9177892340808365e+00 0 0 0
400 1 2.5934833535023980e+01 2.5939613726169888e+01 6.5169841427456419e+00 0 0 0
57 1 1.0938227127973706e+01 5.3389805248755620e+00 1.9620291483847207e-02 0 0 0
207 1 3.9404575610224404e+00 1.1464496936195594e+00 9.6295518985162776e+00 0 0 0
215 1 9.7772389203203023e+00 1.1080540949776296e+00 9.5268794846339286e+00 0 0 0
219 1 1.3854050462347944e+01 3.9335454670997881e-02 8.0081472879047784e+00 0 0 0
223 1 1.5227772399749600e+01 1.0220064890436864e+00 9.4532820858456166e+00 0 0 0
2019 1 1.3770896163495001e+01 2.7275778615544318e+01 2.6112583130238165e+00 0 0 0
231 1 2.0465003819579792e+01 1.2573263636797318e+00 9.6921250320416075e+00 0 0 0
239 1 2.6261457518969824e+01 1.3545323487370746e+00 9.5500581578245889e+00 0 0 0
206 1 1.3671058657936039e+00 3.9781090330708286e+00 9.4607584878876558e+00 0 0 0
210 1 5.3157442454212358e+00 2.3226494804201954e+00 8.1189106741566963e+00 0 0 0
214 1 6.6659530117937633e+00 3.8889330503716302e+00 9.7892510579583174e+00 0 0 0
406 1 8.2458122002452345e+00 2.4698555020128676e+00 1.0971109125540250e+01 0 0 0
222 1 1.2523234756978502e+01 3.8856600895757478e+00 9.3427501283870473e+00 0 0 0
226 1 1.6539709311333315e+01 2.5408189481151973e+00 8.2996225074007608e+00 0 0 0
414 1 1.8993395215952763e+01 2.2890636106731024e+00 1.1390694740400688e+01 0 0 0
230 1 1.7679163618042534e+01 3.9983939360581848e+00 9.8328495205423163e+00 0 0 0
238 1 2.3225653586974492e+01 3.9457852949702850e+00 9.6392459398549164e+00 0 0 0
418 1 2.4744438673171640e+01 2.6497428236969642e+00 1.0837205230615782e+01 0 0 0
243 1 2.8114958565117489e+00 5.1721498722016603e+00 8.2208749849489280e+00 0 0 0
247 1 4.4271277516934857e+00 6.5623553446470746e+00 9.5418496322369890e+00 0 0 0
255 1 9.6566478963832587e+00 6.4262172246768552e+00 9.6732616539221947e+00 0 0 0
429 1 1.1035485197496728e+01 5.2157857025458876e+00 1.1086647696551966e+01 0 0 0
263 1 1.5175274666498295e+01 6.5661800418767564e+00 9.7373186528243423e+00 0 0 0
433 1 1.6481484162431336e+01 5.3673572817001363e+00 1.1289920735378502e+01 0 0 0
271 1 2.0535265741851369e+01 6.5449791516304758e+00 9.7539007506865225e+00 0 0 0
437 1 2.1894710547809893e+01 5.2768844125844918e+00 1.1032437652611975e+01 0 0 0
193 1 2.1626501079792263e+01 2.1787825800159489e+01 2.2664864141950850e-01 0 0 0
279 1 2.5940791650422149e+01 6.8934088357864969e+00 9.3763006262921582e+00 0 0 0
246 1 1.5240200260607266e+00 9.6266566631831232e+00 9.7603321812076143e+00 0 0 0
422 1 2.8189646633130239e+00 7.8398026644506702e+00 1.0819117601856501e+01 0 0 0
254 1 6.9797359100008096e+00 9.4513038327119698e+00 9.5664374677777442e+00 0 0 0
426 1 8.5337447591205837e+00 8.0095825672118472e+00 1.0824306749197532e+01 0 0 0
262 1 1.2109004995932786e+01 9.6456383156632093e+00 9.2121693353997447e+00 0 0 0
430 1 1.3770062543285691e+01 8.3134550460513275e+00 1.0515699748239983e+01 0 0 0
270 1 1.7854284779747985e+01 9.3341911774018254e+00 9.3838684462209052e+00 0 0 0
274 1 2.1568309569866020e+01 8.0853481277964079e+00 8.2296067997818323e+00 0 0 0
278 1 2.3112849054726876e+01 9.4050766113460593e+00 9.3257525592304340e+00 0 0 0
438 1 2.4509089019115518e+01 8.1169180566364414e+00 1.1056102511832140e+01 0 0 0
4 1 2.6732659033174517e+00 2.3253688704744424e+00 3.1021779887901801e-01 0 0 0
2209 1 5.4107196671772249e+00 2.7160236849826330e+01 5.6516444669326642e+00 0 0 0
287 1 3.9507062808881734e+00 1.2115713381586550e+01 9.6023986907026480e+00 0 0 0
295 1 9.5293302854419242e+00 1.2191513649851851e+01 9.4679043596442565e+00 0 0 0
303 1 1.4829997321014039e+01 1.2192291311853932e+01 9.4249099230816142e+00 0 0 0
307 1 1.9053802888673086e+01 1.0844724357246502e+01 8.1368911181951482e+00 0 0 0
319 1 2.5839418506285352e+01 1.2134142568569368e+01 9.5315123395341939e+00 0 0 0
290 1 5.4772578133529235e+00 1.3271001919379836e+01 8.3049839995227810e+00 0 0 0
446 1 7.8029487899840824e+00 1.3597422391680521e+01 1.0831328248836803e+01 0 0 0
298 1 1.0949675180984515e+01 1.3772080506464402e+01 8.3184770279739801e+00 0 0 0
306 1 1.6592336621907979e+01 1.3707697860332754e+01 7.9032025350434010e+00 0 0 0
311 1 2.0416681179714839e+01 1.2015633768491698e+01 9.7398518672202226e+00 0 0 0
458 1 2.4703368871470317e+01 1.3386102742898956e+01 1.1293384456415492e+01 0 0 0
318 1 2.3396790356252779e+01 1.4810807336431642e+01 9.6008276106373973e+00 0 0 0
487 1 6.8286667910723393e+00 2.3321147529494233e+01 1.1912082407349610e+01 0 0 0
286 1 1.8051586679822740e+00 1.4991094517730460e+01 9.6553008844643777e+00 0 0 0
323 1 3.0428244831376432e+00 1.6568109573692091e+01 8.0683752299700338e+00 0 0 0
294 1 6.5557233989684889e+00 1.5080798035835924e+01 9.4677074969509132e+00 0 0 0
331 1 7.8526583409691879e+00 1.6280976153976393e+01 8.0302521406311556e+00 0 0 0
302 1 1.2058528270424386e+01 1.4990463503680104e+01 9.7282772501838419e+00 0 0 0
339 1 1.3693874508631374e+01 1.6232773116889604e+01 8.4873268861466737e+00 0 0 0
310 1 1.7657243468241585e+01 1.4878737628686189e+01 9.4060033817073396e+00 0 0 0
477 1 2.1950416223440556e+01 1.6205351404573936e+01 1.0947611200989105e+01 0 0 0
327 1 3.9703577189036805e+00 1.7794650681455160e+01 9.7772651773807535e+00 0 0 0
462 1 2.4625739978634438e+00 1.9156913888336298e+01 1.0912440266390547e+01 0 0 0
330 1 5.4692910918695565e+00 1.9347926982037343e+01 8.2194238978753411e+00 0 0 0
335 1 9.2379136985663948e+00 1.7470273788412136e+01 9.7521277876316450e+00 0 0 0
338 1 1.0962768895694134e+01 1.8873738164056451e+01 8.6424564900320977e+00 0 0 0
343 1 1.4937073027835067e+01 1.7793306660846234e+01 9.8620217999946362e+00 0 0 0
346 1 1.6070441298575844e+01 1.9150856301619825e+01 8.2153531791410632e+00 0 0 0
354 1 2.1994720094941147e+01 1.9135720952112042e+01 8.0922573746560058e+00 0 0 0
351 1 2.0684021322773734e+01 1.7577330682324252e+01 9.2576305484988879e+00 0 0 0
359 1 2.6266812298546192e+01 1.7549110809534000e+01 9.3338952902146168e+00 0 0 0
326 1 1.1257441227641012e+00 2.0485407825393512e+01 9.4416572132195871e+00 0 0 0
334 1 6.8918524805339247e+00 2.0424466113032274e+01 9.6223603465367198e+00 0 0 0