LAMMPS data file via write_data, version 16 Mar 2018, timestep = 2000000

8000 atoms
1 atom types

-2.2748922325099841e-03 5.2383591553362116e+01 xlo xhi
-2.2748922326272236e-03 5.2383591553362315e+01 ylo yhi
-2.2748922256994319e-03 5.2383591553355281e+01 zlo zhi

Masses

1 28.0855

Atoms # atomic

5 1 1.3497251851636782e+00 1.2305607477382667e+00 1.2796796522289751e+00 0 0 0
518 1 2.3541378619164540e+01 1.3016506408303030e-01 1.3053081157815745e+01 0 0 0
13 1 6.4570569252164685e+00 1.3217867801317722e+00 1.3728973221100202e+00 0 0 0
10 1 5.0487433741747516e+00 2.5572675914519616e+00 2.7749288264379146e+00 0 0 0
21 1 1.1767564219577443e+01 1.3997855572578628e+00 1.4599398489478268e+00 0 0 0
2409 1 1.0478886923303310e+01 2.6039847765029236e+01 1.0446885625914815e+01 0 0 0
29 1 1.6942373127813799e+01 1.2290161971718416e+00 1.3598141447026251e+00 0 0 0
26 1 1.5749118097406278e+01 2.5968956294891488e+00 2.7180766507428600e+00 0 0 0
37 1 2.2271314937223956e+01 1.1494511678161932e+00 1.2494329471225052e+00 0 0 0
217 1 1.0406430716092474e+01 4.4870795524551470e-02 5.4360407528296566e+00 0 0 0
8 1 3.7527003649661625e+00 3.8816088636269455e+00 1.4190184623510469e+00 0 0 0
16 1 9.1611495696433511e+00 3.9143821566253632e+00 1.2991619612251071e+00 0 0 0
153 1 2.0970892419764184e+01 1.5749612836327794e+01 6.1732935429667748e-02 0 0 0
18 1 1.0542459926387915e+01 2.7237289961832198e+00 2.6908367103365665e+00 0 0 0
24 1 1.4557864011303936e+01 3.8890450080998322e+00 1.3102425932468607e+00 0 0 0
68 1 1.8361468892036477e+01 7.8891081746434679e+00 2.1408484810765401e-02 0 0 0
32 1 1.9668398431264890e+01 3.8094907224151648e+00 1.4183855916018726e+00 0 0 0
2211 1 7.9134401437041291e+00 2.6178649279590854e+01 7.8186929582621900e+00 0 0 0
40 1 2.4877041515503159e+01 3.7552841658391047e+00 1.2185314985792064e+00 0 0 0
75 1 2.3586781169978845e+01 5.0921758198455249e+00 2.5364515280607391e+00 0 0 0
45 1 1.1765565708542283e+00 6.6753849328057582e+00 1.1583804449811845e+00 0 0 0
12 1 7.7392913328991044e+00 2.5218043379766359e+00 2.1669910747835981e-02 0 0 0
53 1 6.5404143662345318e+00 6.6467266180160118e+00 1.3462460530987401e+00 0 0 0
61 1 1.1819251793212318e+01 6.4977235612975051e+00 1.4630820721752471e+00 0 0 0
322 1 6.9609552293954380e-02 1.8185432514816711e+01 7.7003956933014699e+00 0 0 0
69 1 1.7177006645255645e+01 6.5230515073056754e+00 1.2691972109607972e+00 0 0 0
2025 1 1.5781807627324008e+01 2.6136444384532425e+01 1.7842969123426306e-03 0 0 0
77 1 2.2252079735007040e+01 6.4433724244623427e+00 1.4141040959328628e+00 0 0 0
500 1 2.4776434995433775e+01 2.4863283659713680e+01 1.1781419713014746e+01 0 0 0
496 1 1.9592817282075284e+01 2.4907516465788209e+01 1.1808293230252323e+01 0 0 0
48 1 3.8383814130781606e+00 9.2182756513135047e+00 1.2556603588697357e+00 0 0 0
2233 1 2.1019844455818404e+01 2.6089826635115610e+01 5.2717214922671305e+00 0 0 0
56 1 9.2288266780119734e+00 9.1171440142731939e+00 1.2348471333269517e+00 0 0 0
483 1 1.1898720320020233e+00 2.2225273620703465e+01 1.1848975793076729e+01 0 0 0
64 1 1.4472224465590795e+01 9.1450959853719578e+00 1.3170602561562470e+00 0 0 0
89 1 5.2610390465133676e+00 1.0466161781912509e+01 -7.9463363458083308e-04 0 0 0
72 1 1.9619507995782786e+01 9.2029902488618678e+00 1.4872477969305444e+00 0 0 0
74 1 2.0907696659396397e+01 7.7215583218513002e+00 2.6749532398703404e+00 0 0 0
115 1 2.3633220348033269e+01 1.0378201535165632e+01 2.5426044025322114e+00 0 0 0
80 1 2.4926657696831001e+01 9.0100738475444988e+00 1.2993937310884267e+00 0 0 0
85 1 1.2358539793437087e+00 1.1716219700114937e+01 1.2684116343041709e+00 0 0 0
480 1 2.4897510063967054e+01 1.9706778280907539e+01 1.1917714208949359e+01 0 0 0
93 1 6.6031247081769484e+00 1.1827749885397779e+01 1.2731981428059269e+00 0 0 0
90 1 5.3273354820906276e+00 1.3124664994724901e+01 2.6611128045513008e+00 0 0 0
188 1 1.8213286499790250e+01 2.3562052691092759e+01 3.7907780646179660e-02 0 0 0
101 1 1.1889292556337210e+01 1.1816619083712824e+01 1.3070008126765083e+00 0 0 0
109 1 1.7109847713164577e+01 1.1724901301932242e+01 1.4042208180558047e+00 0 0 0
2502 1 2.6856022356173663e+00 2.6169333294243842e+01 1.3014068584433927e+01 0 0 0
117 1 2.2340409155364515e+01 1.1722633714598530e+01 1.3418881444287472e+00 0 0 0
114 1 2.0928831109055590e+01 1.3058039526049079e+01 2.5517478825756363e+00 0 0 0
4322 1 2.6177170458539248e+01 1.8327348649302447e+01 7.9612496929455814e+00 0 0 0
88 1 4.1059989713509006e+00 1.4449790081313749e+01 1.2832969463218753e+00 0 0 0
123 1 2.7061717733960675e+00 1.5739520385565148e+01 2.5051298206611836e+00 0 0 0
96 1 9.1905305625657547e+00 1.4308652948734158e+01 1.3165212682412106e+00 0 0 0
98 1 1.0546032065121285e+01 1.3066032614576445e+01 2.6785275973371436e+00 0 0 0
104 1 1.4350531680843105e+01 1.4411811413621519e+01 1.2669649113961527e+00 0 0 0
112 1 1.9642439363677294e+01 1.4513782903741120e+01 1.3262212966131341e+00 0 0 0
476 1 1.9652549035862304e+01 1.9734670164350280e+01 1.1938285041891374e+01 0 0 0
155 1 2.3591385778426197e+01 1.5761685899491534e+01 2.6435954841175042e+00 0 0 0
120 1 2.4895194387567273e+01 1.4484934229337174e+01 1.3415201915982122e+00 0 0 0
497 1 2.0784947663684854e+01 2.0923701387461360e+01 1.0396359198253673e+01 0 0 0
125 1 1.3121488369232508e+00 1.6906685251410998e+01 1.2156184981315086e+00 0 0 0
133 1 6.7216366822665083e+00 1.6991149983544723e+01 1.0938288671569087e+00 0 0 0
138 1 1.0409734395208206e+01 1.8323774053285486e+01 2.4976837373388574e+00 0 0 0
141 1 1.1827253572766915e+01 1.7041242764465743e+01 1.1932055986392096e+00 0 0 0
139 1 1.3150921731745843e+01 1.5814187311380806e+01 2.5340150457193795e+00 0 0 0
149 1 1.7055698872826582e+01 1.7064024171165173e+01 1.2314514818390854e+00 0 0 0
472 1 1.4415122780625882e+01 1.9618238580439709e+01 1.1703907261543664e+01 0 0 0
157 1 2.2297849872197226e+01 1.7087607645725360e+01 1.3272630097180280e+00 0 0 0
492 1 1.4436895842926342e+01 2.4822823965977452e+01 1.1853174684116151e+01 0 0 0
128 1 3.9937637511302855e+00 1.9662764631307521e+01 1.2341052544726350e+00 0 0 0
136 1 9.1682067831901009e+00 1.9713860011189457e+01 1.2261617634664741e+00 0 0 0
144 1 1.4271704222386157e+01 1.9689670292486184e+01 1.2937804503659556e+00 0 0 0
73 1 2.1035410878840544e+01 5.0893218478930891e+00 5.2518951137539648e-02 0 0 0
152 1 1.9713295284785669e+01 1.9497415527696440e+01 1.3010090264937213e+00 0 0 0
160 1 2.4868753992560301e+01 1.9751207238213677e+01 1.2935957144502088e+00 0 0 0
165 1 1.1436018927810903e+00 2.2199658865437897e+01 1.2992473999075691e+00 0 0 0
2035 1 2.3511495014535956e+01 2.6179003748326561e+01 2.5368957926935658e+00 0 0 0
170 1 5.2953770426885702e+00 2.3666844517744973e+01 2.6333887302468870e+00 0 0 0
173 1 6.4824656287414637e+00 2.2270694705954895e+01 1.2486028684955535e+00 0 0 0
122 1 6.5767768862410481e-02 1.8207704737903747e+01 2.5055016203392229e+00 0 0 0
181 1 1.1706868182094809e+01 2.2330563856614717e+01 1.2449511620724407e+00 0 0 0
468 1 9.0916244735233125e+00 1.9572064949230967e+01 1.1590927016541135e+01 0 0 0
466 1 7.8229688552113945e+00 1.8271788395564947e+01 1.0314601258204924e+01 0 0 0
52 1 7.8113690343862352e+00 7.9198036486604462e+00 1.3367018085118754e-02 0 0 0
189 1 1.7038072799811591e+01 2.2259323333363444e+01 1.3031835028968397e+00 0 0 0
197 1 2.2239668277757460e+01 2.2305614842377729e+01 1.2222060661358578e+00 0 0 0
464 1 3.8076492181279993e+00 1.9640024923405345e+01 1.1706061850519001e+01 0 0 0
168 1 3.8351514709931527e+00 2.4895566336232086e+01 1.3323832348249571e+00 0 0 0
176 1 9.1111209598774501e+00 2.4856424405271660e+01 1.2936606643349988e+00 0 0 0
11 1 7.9081451501974556e+00 1.4731797848533314e-03 2.6686843188153366e+00 0 0 0
184 1 1.4349146462962791e+01 2.4989208534503419e+01 1.2792061676012607e+00 0 0 0
462 1 2.5266688313642227e+00 1.8143546719118643e+01 1.0434640974810211e+01 0 0 0
409 1 1.0371080223939188e+01 9.6072207824775546e-02 1.0561477315001259e+01 0 0 0
192 1 1.9662560185148443e+01 2.4836937127081953e+01 1.1788509926635586e+00 0 0 0
219 1 1.3172142935193881e+01 5.2804260331842282e-02 8.0026585958011811e+00 0 0 0
200 1 2.4886909421879611e+01 2.4829789683693164e+01 1.2127123209515505e+00 0 0 0
7 1 3.7759892235841916e+00 1.1687350556186717e+00 3.9288479328471881e+00 0 0 0
2413 1 1.5664939085264598e+01 2.6179110160107232e+01 1.0468379631216035e+01 0 0 0
15 1 9.2994067551567845e+00 1.3259497885429057e+00 3.9858909323320550e+00 0 0 0
220 1 1.3170280575572928e+01 2.7311696310269347e+00 5.2461941638060097e+00 0 0 0
27 1 1.8333983290820726e+01 2.8827289526863267e-03 2.7503577740637271e+00 0 0 0
23 1 1.4447265791662318e+01 1.2468024364296293e+00 4.0204822151563055e+00 0 0 0
31 1 1.9680788682455997e+01 1.3160938845418986e+00 3.9910726580260261e+00 0 0 0
34 1 2.0988146910098717e+01 2.5705146942839581e+00 2.6555725404171024e+00 0 0 0
228 1 1.8397749756369425e+01 2.6696324459436713e+00 5.3200328052390828e+00 0 0 0
236 1 2.3573138133627076e+01 2.5535678114634393e+00 5.2463510150852848e+00 0 0 0
39 1 2.4793176984371097e+01 1.2731459078385816e+00 3.9002658271668547e+00 0 0 0
6 1 1.2124898001131084e+00 3.8017805841869330e+00 3.9397633372272307e+00 0 0 0
43 1 2.4133409869456690e+00 5.2029193287453097e+00 2.5695529786691869e+00 0 0 0
488 1 9.0969426152800761e+00 2.4850567670991886e+01 1.1734918197517212e+01 0 0 0
14 1 6.4800190574868557e+00 3.9444692208356100e+00 4.0421503202827145e+00 0 0 0
249 1 5.0915994563857261e+00 5.1725668827136246e+00 5.2567680862806174e+00 0 0 0
22 1 1.1883475803409690e+01 4.0169635024544981e+00 3.9935199752462593e+00 0 0 0
59 1 1.3309703561992047e+01 5.1676575823371138e+00 2.6643342090295858e+00 0 0 0
30 1 1.7049311075591199e+01 3.9796909880195406e+00 4.0322125531984243e+00 0 0 0
67 1 1.8373939426090423e+01 5.2726131979696538e+00 2.7159044313360630e+00 0 0 0
38 1 2.2334189413277606e+01 3.9175366590506133e+00 3.8793391095087886e+00 0 0 0
273 1 2.0990810216207596e+01 5.2810055954732018e+00 5.3368231206909709e+00 0 0 0
50 1 5.1342655204599206e+00 7.9835392020969431e+00 2.6372192820612015e+00 0 0 0
47 1 3.7984696575605823e+00 6.4953555337040978e+00 3.8552937585358826e+00 0 0 0
51 1 7.6866776640434296e+00 5.1340990153229775e+00 2.5498285431666665e+00 0 0 0
55 1 9.0913442484314384e+00 6.4387142462615810e+00 3.8833093828173411e+00 0 0 0
58 1 1.0402706216329808e+01 7.8435558309535001e+00 2.7575765073666121e+00 0 0 0
260 1 1.3188045083376631e+01 7.7920386016403871e+00 5.1864267124653258e+00 0 0 0
63 1 1.4595096074185433e+01 6.5763267132774601e+00 3.8658542026385878e+00 0 0 0
71 1 1.9626012148526307e+01 6.5654591651117551e+00 4.1689949927951266e+00 0 0 0
276 1 2.3620961936310508e+01 7.7185137087526083e+00 5.1096276027165324e+00 0 0 0
79 1 2.4905463543116621e+01 6.3477345202512545e+00 3.8993430802749081e+00 0 0 0
46 1 1.2160614390937787e+00 9.1632433960855977e+00 3.9831510210358640e+00 0 0 0
54 1 6.6051349593405151e+00 9.1632629433039750e+00 3.9298501407047244e+00 0 0 0
91 1 7.9665839963908365e+00 1.0414257640694739e+01 2.5491592735786091e+00 0 0 0
62 1 1.1897499750080177e+01 9.0881992075655020e+00 3.8880085095613999e+00 0 0 0
305 1 1.5706666881103505e+01 1.0516870931452228e+01 5.3065583363358924e+00 0 0 0
66 1 1.5881685007527548e+01 7.8189842213784111e+00 2.5953144927285106e+00 0 0 0
70 1 1.6934695362104407e+01 9.0593116076194935e+00 4.1495950787409610e+00 0 0 0
268 1 1.8405976890261226e+01 8.0375232332104272e+00 5.4583561536722218e+00 0 0 0
78 1 2.2322959365625113e+01 9.1276481173858777e+00 3.9075736921915296e+00 0 0 0
19 1 1.3102781011123250e+01 2.2883947665071958e-02 2.6673297101424160e+00 0 0 0
284 1 2.6030231896523670e+00 1.3065747041364094e+01 5.1374480322153619e+00 0 0 0
83 1 2.6042288365148369e+00 1.0434839055557793e+01 2.5622045051187921e+00 0 0 0
87 1 3.8666251113447414e+00 1.1771283710569678e+01 3.8447503324429904e+00 0 0 0
289 1 5.1847752539894278e+00 1.0501706507940140e+01 5.1736875262858737e+00 0 0 0
95 1 9.1846954280664246e+00 1.1797221911734800e+01 3.8667381624778900e+00 0 0 0
99 1 1.3153982875492357e+01 1.0503246502500804e+01 2.6016044684921056e+00 0 0 0
297 1 1.0465073228456209e+01 1.0429446899485361e+01 5.1076834832755864e+00 0 0 0
103 1 1.4503591934023767e+01 1.1780116150633054e+01 3.8830579669667276e+00 0 0 0
107 1 1.8247785328032840e+01 1.0451897770183807e+01 2.9109708986964358e+00 0 0 0
111 1 1.9655102260538037e+01 1.1803371131944846e+01 3.9179470526519675e+00 0 0 0
313 1 2.1054269242517659e+01 1.0487708625437486e+01 5.1035197693137544e+00 0 0 0
316 1 2.3597775199352736e+01 1.3228218801908920e+01 5.1399240799494299e+00 0 0 0
119 1 2.4811628273517869e+01 1.1864478274992999e+01 3.7779175029242329e+00 0 0 0
86 1 1.3872293370055033e+00 1.4426710987920668e+01 3.8164127208445149e+00 0 0 0
94 1 6.6067970961832083e+00 1.4429098979520468e+01 3.9710927414631421e+00 0 0 0
102 1 1.1877797422286534e+01 1.4417754907359837e+01 3.8287712478931328e+00 0 0 0
106 1 1.5754904013986080e+01 1.3078227475726001e+01 2.6254711819011094e+00 0 0 0
300 1 1.3107766470039564e+01 1.3065208751051605e+01 5.1970163615462379e+00 0 0 0
110 1 1.7110340870812809e+01 1.4485482426027165e+01 3.7930555597175202e+00 0 0 0
308 1 1.8342442920652200e+01 1.3085739912516582e+01 5.2384483384291416e+00 0 0 0
118 1 2.2252628564013545e+01 1.4455987557380464e+01 3.8036924004064687e+00 0 0 0
127 1 3.9093041452474711e+00 1.7095366021213607e+01 3.7814126840720999e+00 0 0 0
131 1 7.8655813652132487e+00 1.5677373573604402e+01 2.5666492351151953e+00 0 0 0
135 1 9.2288026740985760e+00 1.7013254502034222e+01 3.7918771045183961e+00 0 0 0
337 1 1.0517579263257645e+01 1.5631417076628132e+01 5.1034857711554729e+00 0 0 0
143 1 1.4503430281800465e+01 1.7113438194607184e+01 3.7534511737561584e+00 0 0 0
146 1 1.5748023403686581e+01 1.8415538666392745e+01 2.4485578507345034e+00 0 0 0
147 1 1.8406959403713632e+01 1.5825492139199953e+01 2.5985324941472587e+00 0 0 0
151 1 1.9618968091170910e+01 1.6986783692976612e+01 3.9743966345466175e+00 0 0 0
154 1 2.0991762614357128e+01 1.8258606612665940e+01 2.6896333165402377e+00 0 0 0
353 1 2.0946461051132481e+01 1.5651197623853166e+01 5.1993488432416521e+00 0 0 0
159 1 2.4927349604900250e+01 1.6969024433933040e+01 3.9501351795458537e+00 0 0 0
126 1 1.2447912803621448e+00 1.9658010969903728e+01 3.8535747399686637e+00 0 0 0
235 1 2.3601349502160168e+01 2.1172648399975458e-02 7.8454987120033506e+00 0 0 0
130 1 5.3458454090177616e+00 1.8230427134533834e+01 2.4550866341724209e+00 0 0 0
163 1 2.6313290018777522e+00 2.0917974431610425e+01 2.5457172702223372e+00 0 0 0
134 1 6.4802233887241218e+00 1.9573422705744193e+01 3.9596716767458386e+00 0 0 0
142 1 1.1803158106990589e+01 1.9615190193282466e+01 3.8581715554873623e+00 0 0 0
179 1 1.3051782618536039e+01 2.1022422423086308e+01 2.5301506361890542e+00 0 0 0
150 1 1.7031516192552456e+01 1.9655113262217860e+01 3.8646249941691480e+00 0 0 0
187 1 1.8434761977483252e+01 2.0907339549675587e+01 2.5385762909692775e+00 0 0 0
158 1 2.2237293192191721e+01 1.9544044778637591e+01 3.8568384387041563e+00 0 0 0
167 1 3.9314735105536487e+00 2.2282418275862835e+01 3.9078090293871903e+00 0 0 0
171 1 7.7402841073636992e+00 2.0969345530121032e+01 2.5712637286695146e+00 0 0 0
175 1 9.1262489079959277e+00 2.2247622693724381e+01 3.8877050776459479e+00 0 0 0
377 1 1.0572113038638397e+01 2.0950990376865299e+01 5.1717744756572408e+00 0 0 0
183 1 1.4450417285630889e+01 2.2216566392020585e+01 3.9487608447266171e+00 0 0 0
186 1 1.5692611539424856e+01 2.3661748147013856e+01 2.5529812414225557e+00 0 0 0
385 1 1.5786900865021202e+01 2.0956883088485636e+01 5.2777183383339716e+00 0 0 0
191 1 1.9692965086843166e+01 2.2240824464243840e+01 3.8134206832354129e+00 0 0 0
195 1 2.3412337395856206e+01 2.1030955501660902e+01 2.6239227490454216e+00 0 0 0
199 1 2.4837308769879993e+01 2.2292917523027775e+01 3.9476262295749005e+00 0 0 0
4481 1 2.6049413836825849e+01 2.1004965462779314e+01 1.0556991694659793e+01 0 0 0
166 1 1.1488692865719452e+00 2.4818253458837781e+01 3.8086571715213675e+00 0 0 0
364 1 2.4510204544136047e+00 2.3540391460093996e+01 5.0540044203890648e+00 0 0 0
20 1 1.3259120479169123e+01 2.6681263567948559e+00 4.5416725394141544e-02 0 0 0
525 1 5.1102342574537376e+00 7.8289603559782517e+00 1.3086274964347311e+01 0 0 0
174 1 6.6112823519596757e+00 2.4858144753228906e+01 3.9983149153280957e+00 0 0 0
178 1 1.0370743750229623e+01 2.3594796735728231e+01 2.6795216286659103e+00 0 0 0
405 1 5.1423151547557477e+00 -4.2774430117731299e-04 1.0410398975505913e+01 0 0 0
182 1 1.1786944651746596e+01 2.4873962600730160e+01 3.9958493376267472e+00 0 0 0
190 1 1.7014357068583500e+01 2.4886991453029321e+01 3.8279859870152371e+00 0 0 0
194 1 2.1011981716578855e+01 2.3660024712197952e+01 2.5047608503563281e+00 0 0 0
2011 1 7.8636257531977227e+00 2.6173662545863500e+01 2.7091264486201951e+00 0 0 0
388 1 1.8421522237717291e+01 2.3537546742428194e+01 5.0709301604193220e+00 0 0 0
198 1 2.2299342201184697e+01 2.4817475943778788e+01 3.9333521298043390e+00 0 0 0
484 1 3.9155184835402959e+00 2.4779129830508893e+01 1.1709955604451604e+01 0 0 0
205 1 1.1953306745195607e+00 1.2840452015621853e+00 6.6956141254262196e+00 0 0 0
213 1 6.5389357506012686e+00 1.3731741626844918e+00 6.4721947027735576e+00 0 0 0
212 1 7.9967646625803273e+00 2.6212118961420421e+00 5.3182842497883565e+00 0 0 0
218 1 1.0584621525061175e+01 2.5697659586850419e+00 8.0499945251787803e+00 0 0 0
221 1 1.1958341707710462e+01 1.3735801349201822e+00 6.6233574014202015e+00 0 0 0
226 1 1.5603598168296385e+01 2.7397470889590609e+00 7.8007769431306793e+00 0 0 0
229 1 1.7019043608079340e+01 1.3516182865099702e+00 6.5158684912877591e+00 0 0 0
237 1 2.2234565117146690e+01 1.2594074598460931e+00 6.5636058227475473e+00 0 0 0
234 1 2.1085724091780133e+01 2.5339971846320353e+00 7.8794477581060276e+00 0 0 0
204 1 2.4913614427859412e+00 2.4488280770645101e+00 5.2851513505386007e+00 0 0 0
208 1 3.8501537568480693e+00 3.7775283932600869e+00 6.5654698692733477e+00 0 0 0
210 1 5.1752568890600479e+00 2.5076527396986328e+00 7.9565836541330421e+00 0 0 0
216 1 9.2318113265270174e+00 3.9126294520768115e+00 6.8267036557855052e+00 0 0 0
257 1 1.0351122010731025e+01 5.2494158238113178e+00 5.3117726468217175e+00 0 0 0
224 1 1.4426176241582224e+01 4.0760994260895504e+00 6.5636220174474600e+00 0 0 0
259 1 1.2982431840187340e+01 5.2333513086476060e+00 7.9719821994493820e+00 0 0 0
265 1 1.5811063217450350e+01 5.3372976777678653e+00 5.3274575927230439e+00 0 0 0
267 1 1.8425337445323500e+01 5.2659549091682267e+00 7.9285937434543809e+00 0 0 0
232 1 1.9683444229967360e+01 3.9162929074021982e+00 6.6516461376257041e+00 0 0 0
275 1 2.3682911489948342e+01 5.3067919014710094e+00 7.7878250397350328e+00 0 0 0
240 1 2.4883588558829580e+01 3.9622441748297375e+00 6.4251811241071550e+00 0 0 0
245 1 1.2888152594010291e+00 6.5551957519521551e+00 6.5854459354020474e+00 0 0 0
253 1 6.3914625819113757e+00 6.5194352097948949e+00 6.4676061056996197e+00 0 0 0
252 1 7.8100295165943612e+00 7.7637936492181332e+00 5.1487039377326029e+00 0 0 0
258 1 1.0452148919118283e+01 7.8379783775079597e+00 7.8147025464968296e+00 0 0 0
261 1 1.1696297695875186e+01 6.5481440539212619e+00 6.4757052733320526e+00 0 0 0
266 1 1.5661101156347128e+01 7.8312845069129393e+00 7.8236307861756220e+00 0 0 0
269 1 1.7033138040206389e+01 6.6052717775508647e+00 6.6643529062278510e+00 0 0 0
274 1 2.1007839166564199e+01 7.9189490669280387e+00 7.8253549695426097e+00 0 0 0
277 1 2.2321988431724630e+01 6.6024977214715950e+00 6.5842857777229318e+00 0 0 0
499 1 2.2232758041022173e+01 2.2187449701294963e+01 1.1708078570037992e+01 0 0 0
244 1 2.5574702920652745e+00 7.7702998969092691e+00 5.2941965341260628e+00 0 0 0
248 1 3.8327812440884799e+00 9.1345042858440308e+00 6.5453289377731441e+00 0 0 0
256 1 9.1997347417396629e+00 9.0994615466985262e+00 6.3303299688436478e+00 0 0 0
264 1 1.4345119474541756e+01 9.2734039809470072e+00 6.5930644023664629e+00 0 0 0
272 1 1.9803825511309622e+01 9.3267752231733869e+00 6.5780965787165133e+00 0 0 0
280 1 2.4857354774740621e+01 9.1268463037435463e+00 6.3220191645900057e+00 0 0 0
315 1 2.3550927493178168e+01 1.0331150828878313e+01 7.7683023423616309e+00 0 0 0
285 1 1.2969651366464534e+00 1.1797229944723545e+01 6.5367569375709085e+00 0 0 0
283 1 2.6261897632177686e+00 1.0548136108730986e+01 7.8484853650913529e+00 0 0 0
290 1 5.2254353012775692e+00 1.3248101869893993e+01 7.8199889431359404e+00 0 0 0
293 1 6.5934837270219635e+00 1.1828284802534220e+01 6.5076632091639208e+00 0 0 0
298 1 1.0472955562582150e+01 1.3052531642242506e+01 7.7333593453474068e+00 0 0 0
301 1 1.1776942279337376e+01 1.1706983290359462e+01 6.4222028978382379e+00 0 0 0
307 1 1.8369939433133794e+01 1.0437564011484854e+01 7.8661668036540737e+00 0 0 0
306 1 1.5738677201662751e+01 1.3000249218399627e+01 7.7675323299472510e+00 0 0 0
309 1 1.7112610834253605e+01 1.1690342738719719e+01 6.4966964060214236e+00 0 0 0
317 1 2.2397830822515818e+01 1.1781342926441077e+01 6.4997461752312526e+00 0 0 0
2203 1 2.5918643539637318e+00 2.6156479028623220e+01 7.9354088802506189e+00 0 0 0
288 1 3.8475526595579743e+00 1.4393923289604681e+01 6.5458724456625390e+00 0 0 0
329 1 5.2736503807782604e+00 1.5800963841013884e+01 5.1531717179180330e+00 0 0 0
292 1 7.9144021283836903e+00 1.3091756006058132e+01 5.2440767833186683e+00 0 0 0
296 1 9.2887760031964195e+00 1.4492620323692142e+01 6.4087759563054227e+00 0 0 0
304 1 1.4435133414930872e+01 1.4492411959145535e+01 6.4906640103198248e+00 0 0 0
339 1 1.2979903990980079e+01 1.5673490031844107e+01 7.8132433426249168e+00 0 0 0
312 1 1.9703064166502742e+01 1.4336682109805471e+01 6.5689705221722843e+00 0 0 0
314 1 2.0989823624294889e+01 1.3015661053156865e+01 7.8526402109141005e+00 0 0 0
320 1 2.4951042003119870e+01 1.4386525317926051e+01 6.5100240256920605e+00 0 0 0
498 1 2.3517047195409820e+01 2.3522029920865172e+01 1.0454389998036680e+01 0 0 0
325 1 1.2634059565769842e+00 1.6956388640248232e+01 6.3414069956089394e+00 0 0 0
324 1 2.4994848889849015e+00 1.8317557427196142e+01 5.1260881465992698e+00 0 0 0
333 1 6.6669944905051368e+00 1.7047187400658476e+01 6.4003921782019235e+00 0 0 0
341 1 1.1886419739843939e+01 1.7013311885175860e+01 6.3716184727530658e+00 0 0 0
345 1 1.5818969513859511e+01 1.5757045200988577e+01 5.1436034040270631e+00 0 0 0
349 1 1.7023600071257700e+01 1.7054507933764832e+01 6.5073276748900355e+00 0 0 0
354 1 2.0969911886070069e+01 1.8428136106429175e+01 7.7710421062324535e+00 0 0 0
356 1 2.3539901906051860e+01 1.8327888229805257e+01 5.1725133396387726e+00 0 0 0
357 1 2.2284211056556906e+01 1.7043058340494987e+01 6.5184104841887329e+00 0 0 0
574 1 1.8438651293981628e+01 1.5720763491582456e+01 1.2958565314621282e+01 0 0 0
328 1 3.8501178525363531e+00 1.9422448675065382e+01 6.5613817127888865e+00 0 0 0
332 1 8.0645779882786108e+00 1.8337662327415885e+01 5.1692645971848501e+00 0 0 0
336 1 9.3658328048982877e+00 1.9605757928214572e+01 6.5609698406669423e+00 0 0 0
338 1 1.0625970834314064e+01 1.8206656056994674e+01 7.7352472601514002e+00 0 0 0
340 1 1.3199102135965953e+01 1.8432300459047489e+01 5.1078373917800715e+00 0 0 0
344 1 1.4445945843489982e+01 1.9580824022982803e+01 6.5858658403353072e+00 0 0 0
348 1 1.8274373497666001e+01 1.8321151149327239e+01 5.2648017558798896e+00 0 0 0
352 1 1.9677755994900142e+01 1.9700035041460737e+01 6.4850673671225589e+00 0 0 0
360 1 2.4958687254617445e+01 1.9642449243155895e+01 6.4844529007415348e+00 0 0 0
365 1 1.2319217404077409e+00 2.2174679831545998e+01 6.5707709652583448e+00 0 0 0
369 1 5.1867601670299308e+00 2.0952862331617606e+01 5.3181065220679749e+00 0 0 0
373 1 6.5217569932365098e+00 2.2199516744669147e+01 6.5946162492962754e+00 0 0 0
379 1 1.3099431501565357e+01 2.0969819669259071e+01 7.8934346110540341e+00 0 0 0
381 1 1.1827889384034211e+01 2.2310461404417751e+01 6.5486483439981500e+00 0 0 0
380 1 1.3131525583665651e+01 2.3491844648596572e+01 5.1570937093666513e+00 0 0 0
389 1 1.7047456577098849e+01 2.2269456861272555e+01 6.5722393837190296e+00 0 0 0
393 1 2.0930845847230863e+01 2.0918801364302457e+01 5.2328504196195622e+00 0 0 0
397 1 2.2306046644739688e+01 2.2233237063469286e+01 6.5357437067193098e+00 0 0 0
396 1 2.3543801674873844e+01 2.3534378024017556e+01 5.2618654470034540e+00 0 0 0
368 1 3.8434679411739832e+00 2.4935825680631989e+01 6.3072321501080815e+00 0 0 0
372 1 7.9520358727973912e+00 2.3573696884865726e+01 5.3327668343131123e+00 0 0 0
376 1 9.3072310478810678e+00 2.4884411738933672e+01 6.5590728214530714e+00 0 0 0
384 1 1.4464475708969477e+01 2.4870481092221215e+01 6.3864490815083039e+00 0 0 0
392 1 1.9622447689498529e+01 2.4718003628057271e+01 6.5784710498505587e+00 0 0 0
400 1 2.5018671262640463e+01 2.4826459338013080e+01 6.4941807043112059e+00 0 0 0
207 1 3.7985231082653192e+00 1.2933342472970792e+00 9.0944073753772905e+00 0 0 0
215 1 8.9855329841599652e+00 1.3098559939849703e+00 9.1923324480630129e+00 0 0 0
223 1 1.4520573253089120e+01 1.3696303149810327e+00 9.2928883821351551e+00 0 0 0
410 1 1.3146066693035491e+01 2.6463555473027611e+00 1.0580192775720873e+01 0 0 0
414 1 1.8396287115870699e+01 2.6268002211635886e+00 1.0493422825537952e+01 0 0 0
231 1 1.9756675944033358e+01 1.3214835068448245e+00 9.2004380678674647e+00 0 0 0
239 1 2.4966548310211035e+01 1.3776291270115306e+00 9.0464457848125619e+00 0 0 0
206 1 1.1394316360866295e+00 3.9512621580566960e+00 9.1363251288594931e+00 0 0 0
243 1 2.5636388644828334e+00 5.2013944283571245e+00 7.8509991210007097e+00 0 0 0
406 1 7.6757750345413500e+00 2.5853597327560434e+00 1.0453992637165747e+01 0 0 0
214 1 6.3854558036200331e+00 3.8542876413048450e+00 9.1540505483593968e+00 0 0 0
251 1 7.7287049185445165e+00 5.1873042605266928e+00 7.8255296343502891e+00 0 0 0
222 1 1.1783883804181842e+01 3.8910494087806335e+00 9.2781467282261243e+00 0 0 0
433 1 1.5777683629811122e+01 5.2489212332854009e+00 1.0512986212952493e+01 0 0 0
230 1 1.7012383819964668e+01 3.9093641076338890e+00 9.1523747249755605e+00 0 0 0
437 1 2.0956876438352225e+01 5.1184836012976263e+00 1.0344675268195546e+01 0 0 0
238 1 2.2383535879859053e+01 3.9117161950956625e+00 9.0352882100992069e+00 0 0 0
422 1 2.5861679030053786e+00 7.9152494954104027e+00 1.0565292926969198e+01 0 0 0
247 1 3.7886574905589940e+00 6.5886270734415540e+00 9.1824885806175551e+00 0 0 0
250 1 5.1117522698200082e+00 7.8157465520270826e+00 7.8479126076645809e+00 0 0 0
255 1 9.0822329804396951e+00 6.5035282686671039e+00 9.1221605652832594e+00 0 0 0
429 1 1.0331774682124841e+01 5.1610676768980763e+00 1.0500624125615118e+01 0 0 0
263 1 1.4347478927368419e+01 6.5552186623010300e+00 9.2005862376559850e+00 0 0 0
271 1 1.9747162359913961e+01 6.5240226000306603e+00 9.2565944121851160e+00 0 0 0
438 1 2.3621744817254960e+01 7.6825676572580859e+00 1.0438771573154046e+01 0 0 0
227 1 1.8281423222245255e+01 8.4668639085826669e-02 7.9368487660132319e+00 0 0 0
279 1 2.4997634496554049e+01 6.5196949499288692e+00 9.1615670591215199e+00 0 0 0
494 1 1.8293336403807004e+01 2.3476747120579947e+01 1.0621123759592509e+01 0 0 0
246 1 1.3190094035442588e+00 9.1757480050365867e+00 9.1394898292487365e+00 0 0 0
254 1 6.5904896045604016e+00 9.1468513399078937e+00 9.0363732085923125e+00 0 0 0
291 1 7.9017267298466125e+00 1.0461501249455122e+01 7.7056502305774570e+00 0 0 0
299 1 1.3034546032760113e+01 1.0488953786604428e+01 7.8353132713434972e+00 0 0 0
262 1 1.1858975754460310e+01 9.1214300790183405e+00 9.1853657388483079e+00 0 0 0
434 1 1.8335767072668943e+01 7.7766543352340607e+00 1.0560796177519302e+01 0 0 0
270 1 1.6969105482601009e+01 9.0384282702919361e+00 9.1651758721237488e+00 0 0 0
457 1 2.0895581004722896e+01 1.0398785078994138e+01 1.0404508633413272e+01 0 0 0
278 1 2.2315657966734342e+01 9.0559203920030829e+00 9.1623174402800540e+00 0 0 0
2 1 2.8717210552315464e-02 2.5330275234478883e+00 2.5551897865289663e+00 0 0 0
287 1 4.0125173329327559e+00 1.1789513215088750e+01 9.1410861001676196e+00 0 0 0
295 1 9.1770734703103614e+00 1.1701507576753819e+01 8.9984503592377383e+00 0 0 0
303 1 1.4370619024538630e+01 1.1735891408340867e+01 9.0488137584773636e+00 0 0 0
311 1 1.9542947550616713e+01 1.1811416986720719e+01 9.1705009158395150e+00 0 0 0
454 1 1.8236307624277501e+01 1.3123854202340668e+01 1.0353628441677186e+01 0 0 0
478 1 2.3599787413224899e+01 1.8380524695709955e+01 1.0560481726891952e+01 0 0 0
319 1 2.4893957662402791e+01 1.1766286914254183e+01 9.0016791804991350e+00 0 0 0
286 1 1.2038126031616982e+00 1.4297231561289518e+01 9.1701984053575547e+00 0 0 0
323 1 2.4549051091234362e+00 1.5626768340981785e+01 7.7428074272997351e+00 0 0 0
331 1 7.8778510615661892e+00 1.5691147010901098e+01 7.8250598924961894e+00 0 0 0
294 1 6.5250599498031168e+00 1.4350171051664995e+01 9.1943107032922367e+00 0 0 0
302 1 1.1659255939231898e+01 1.4355997455531886e+01 9.0357676144859020e+00 0 0 0
310 1 1.6957870445959980e+01 1.4392123122848835e+01 9.0451729969038510e+00 0 0 0
355 1 2.3602141203051175e+01 1.5666581771022432e+01 7.7979316720557712e+00 0 0 0
318 1 2.2306590412827720e+01 1.4359036284739361e+01 8.9797719315803555e+00 0 0 0
458 1 2.3600907069973285e+01 1.3065494750537937e+01 1.0350740776740631e+01 0 0 0
465 1 5.2148473511759388e+00 1.5661915728928870e+01 1.0496101303114415e+01 0 0 0
327 1 3.8018930564034932e+00 1.6831017399729514e+01 9.1016345600093942e+00 0 0 0
330 1 5.2109853510029316e+00 1.8232675876654337e+01 7.8686899086377400e+00 0 0 0
335 1 9.1870474643088933e+00 1.7014876910384324e+01 9.0941370650036273e+00 0 0 0
469 1 1.0442704092998575e+01 1.5625707063735849e+01 1.0480100276464348e+01 0 0 0
343 1 1.4386616414717231e+01 1.6997224674398424e+01 9.0067408881047548e+00 0 0 0
470 1 1.3079588236734169e+01 1.8313687620403169e+01 1.0369571181898563e+01 0 0 0
347 1 1.8281202740588395e+01 1.5658997760695602e+01 7.7583147554997396e+00 0 0 0
351 1 1.9553987347836372e+01 1.7039194438935926e+01 9.0363594768695368e+00 0 0 0
477 1 2.0947230197310645e+01 1.5705563076011673e+01 1.0223196429283462e+01 0 0 0
359 1 2.4790411353948773e+01 1.7007798160271989e+01 9.1817174794441403e+00 0 0 0
363 1 2.5812498556221213e+00 2.0854830271747716e+01 7.8426408396829572e+00 0 0 0
326 1 1.1834057092610921e+00 1.9586295284628829e+01 9.1352004522433266e+00 0 0 0