LAMMPS data file via write_data, version 16 Mar 2018, timestep = 1000000

8000 atoms
1 atom types

6.4957499293337513e+00 4.7053089133833112e+01 xlo xhi
-7.1145689166660553e+00 6.0649693289609999e+01 ylo yhi
-1.1367333107583555e+00 5.4603674652310218e+01 zlo zhi

Atoms # atomic

5039 1 7.7240217810901610e+00 9.9170744500186849e+00 -4.5334720585724919e-01 -4 0 5
4442 1 9.8025439682718840e+00 -5.4265680791386286e+00 2.3411349177115093e+00 3 6 2
872 1 6.9447693074543180e+00 2.1440587867093374e+01 9.6490558453861972e+00 8 4 0
7026 1 1.6379962245762201e+01 -4.7660437388030443e+00 5.0577766397209567e-01 -6 6 3
685 1 7.6241257087479948e+00 7.8063929405888768e+00 3.2298829532496698e-01 1 0 -2
7675 1 2.6626269751296991e+01 2.0558337968502038e+01 3.8500289854552943e+00 -5 3 3
5375 1 2.3498462725378658e+01 -5.3611766407562209e+00 3.7492342335002937e-01 0 -7 -2
966 1 8.3429770617302701e+00 4.3086833458453651e+00 -4.6435469447104882e-01 2 1 -4
6030 1 1.0945966997401527e+01 -1.1652164301510632e+00 -8.1347653778272577e-01 1 3 2
2320 1 2.4370247490189900e+01 -4.0343709218967092e+00 1.1733013826654735e+01 3 4 2
5770 1 1.4215844016227404e+01 -5.4617335475189943e+00 -8.5887120963752062e-01 -1 -4 -4
6311 1 1.5440566651356248e+01 -6.8652222837005219e+00 1.2071504769709977e+01 -1 4 2
7259 1 2.0944518573532346e+01 -4.5828874274278677e+00 -9.5655841449200363e-02 1 5 4
7479 1 2.1635367520825277e+01 -6.1661147263897247e+00 2.5290580673252898e+00 2 -3 2
2357 1 1.5288662845429547e+01 1.5226195048487405e+01 7.4238916379107511e-02 -1 3 2
3453 1 2.3900884211653064e+01 -1.6642947463375419e+00 1.4945760759524123e+00 2 0 1
5804 1 1.4175833725528193e+01 -1.0664645284213803e+00 -1.5263640678442958e-01 2 1 3
4220 1 1.6063534750773993e+01 2.2705700598045784e+00 1.7133446656968485e+00 0 -1 2
3932 1 7.6571072989997848e+00 1.9428767174706376e+01 1.1316428811357849e+01 6 -4 5
2869 1 2.0727225478261325e+01 2.0629623630374152e+01 9.4163881125039222e+00 2 2 4
7631 1 1.7384311072240635e+01 3.8814003547415776e-01 5.9603361522195053e-01 0 6 0
350 1 2.1778926409313335e+01 -3.7080735238697335e+00 2.2502487007546903e+00 3 3 3
5248 1 1.0339318632988052e+01 1.6602789056477896e+00 -4.8827836132123448e-01 -6 1 2
2545 1 8.0028085148450039e+00 -7.6678031586122586e-01 1.9179647512034221e+00 -1 3 4
7642 1 1.2133565787276472e+01 2.6721471342871315e+01 7.8105036410635709e+00 6 0 3
4121 1 1.0349731867364309e+01 -2.7414264554374146e-01 1.7431887652468161e+00 1 -1 2
2621 1 1.2605517888869480e+01 5.5520274761989441e-01 3.2552891852242394e-01 2 -1 1
6129 1 1.8689581251584833e+01 2.6183529288273302e+01 7.2169406974491057e+00 3 -2 2
3139 1 6.8199386690887689e+00 1.1803407925527708e+01 1.7447401378306124e+00 3 1 -3
4760 1 2.4904842469558925e+01 9.8184699069688861e+00 1.1815464429463868e+01 0 0 -1
2754 1 2.5583461999542539e+01 1.3651235942335489e+01 1.4368789608393007e+00 0 1 -3
1549 1 1.0619495378821512e+01 4.8800217839171633e+00 1.0544666010139503e-01 -1 -4 -5
2354 1 8.1058676697484700e+00 -6.8749348326041035e+00 7.3326788544049819e+00 2 -4 -5
947 1 9.0789708971899810e+00 2.5888818816774641e+01 -8.2405619529749841e-01 5 -2 0
7757 1 1.5289650083171816e+01 6.0206750556950404e+00 -1.7683949670532351e-01 1 -4 5
3340 1 2.6537927047792468e+01 2.4687038317997754e+01 4.5385013135466679e-01 -3 6 -1
2961 1 2.6465604215420520e+01 2.1480250562132447e+01 9.7303392993688274e+00 1 -2 -5
7154 1 2.1638595860496753e+01 8.3904188736328678e-01 -2.1216676325904082e-01 -7 6 -2
6643 1 1.1765935575924988e+01 -6.2806332141664729e+00 7.4181186160770363e+00 -3 -4 1
6187 1 2.6743525358401119e+01 8.2300949145352966e+00 1.2075755441692182e+01 -3 -2 2
2917 1 1.4408379435908691e+01 2.6392206267923260e+01 6.6631515361604947e+00 0 2 2
5618 1 1.7406122609413920e+01 4.2008462782485694e+00 -7.7391529753801924e-02 6 -1 2
1006 1 1.9902676150749894e+01 4.6106796422088756e+00 1.3017128078378355e+00 1 0 -2
1853 1 2.3093539905215241e+01 6.5251905804403165e+00 1.9106877639891700e+00 -1 0 -2
2265 1 2.4938251874026566e+01 8.8963233986379429e+00 1.0700476322200276e+00 -1 0 2
3933 1 9.6155107772760431e+00 7.5071580537311942e+00 -5.7624212028926325e-01 0 -5 -1
1837 1 1.0976954019016002e+01 6.5708675832668160e+00 2.0770964623591466e+00 0 -1 1
6594 1 1.0839592937345447e+01 8.6856490306442922e+00 9.7380312759862031e-01 -3 -1 -1
633 1 8.6990039290840002e+00 2.3468021064637163e+01 2.2494876702985112e-01 1 -6 3
7809 1 1.4139705438426283e+01 8.8886982736721869e+00 5.7079813218355224e-01 2 -1 0
3648 1 1.6619795661800218e+01 6.2481642058659812e+00 2.0945946609739190e+00 4 1 5
1414 1 7.0878539847757382e+00 -2.4162606150978414e+00 8.7786816566092529e+00 2 -3 -3
1117 1 2.0106833401207986e+01 7.8120487166173653e+00 -5.5091095779759147e-01 9 1 3
1906 1 7.6136353405894575e+00 2.3688910160386794e+01 1.0939073671709796e+01 -2 -1 -3
44 1 7.5502073434826791e+00 5.0134367403489382e+00 9.3586402439037411e+00 2 2 3
955 1 1.2196434624386491e+01 9.7013275518721578e+00 -8.0397391507308202e-01 4 -3 -2
7693 1 1.7629449191700694e+01 7.4681117595079574e+00 -6.2415862403029876e-01 1 2 3
7672 1 1.6412794132500274e+01 9.6707826389545772e+00 -4.0386923588021928e-01 0 -3 -1
7652 1 2.1349676425099744e+01 6.7038169062202773e+00 1.1662279507481365e+01 0 2 3
329 1 2.0161920267002547e+01 2.3139866422182976e+01 1.1182523208857214e+01 2 -1 -2
6911 1 2.3399591664919189e+01 1.2259073388941040e+01 1.2406036859715099e+00 4 2 1
7353 1 2.3799028148094958e+01 1.0566210587892840e+01 -4.3843738638534580e-01 2 3 1
3997 1 1.1500776344720155e+01 2.6601863703231867e+01 -2.0044827008594568e-01 -2 3 -2
6900 1 1.0388052119166675e+01 1.2983601857720664e+01 1.3347514224055446e+00 2 3 7
7778 1 1.2595814922132561e+01 1.1834584128624364e+01 3.8351526971018024e-01 0 0 3
3624 1 1.6164283295045141e+01 1.1679599458808234e+01 1.2126320499602516e+00 0 2 0
219 1 1.1786190783237643e+01 -4.8615480996333105e+00 1.1266463670250680e+01 -2 -3 1
5994 1 1.7734563316312205e+01 1.3378902040938851e+01 1.7651902173779064e+00 4 -1 -3
210 1 2.0199752802021116e+01 1.4789198843471652e+01 -6.6107460167750653e-01 -9 4 0
1627 1 2.4367734345425497e+01 1.5079559758542121e+01 -5.2766078535071304e-01 -2 -1 0
4252 1 2.5730436562853701e+01 2.1655281583224866e+01 -7.4011757669966460e-01 -3 1 6
759 1 8.9044301248139739e+00 1.8886634710302062e+01 4.8328289717871531e-01 0 -1 -3
5638 1 1.4166085752356679e+01 1.7098031464612216e+01 1.0962912676082448e+00 0 1 0
485 1 1.1578634943632014e+01 1.5932743334661129e+01 5.7777442541357216e-01 1 -7 -4
3068 1 1.4158231850005372e+01 -7.0900213019886120e+00 1.2284868459784297e+00 -7 -1 3
183 1 2.2183026154397371e+01 1.6089467976021936e+01 3.7721835342603116e-01 1 5 -2
1799 1 2.2762275852609363e+01 1.5333360917697345e+01 3.3122578408784422e+00 -1 1 -2
5358 1 6.9159580995995578e+00 1.9977995455172330e+01 1.3698225276846645e+00 2 3 -4
4596 1 2.5065747703203094e+01 1.4210396972854191e+01 7.5113716703891669e+00 1 2 2
7248 1 1.4783862140985812e+01 1.9314339298170342e+01 2.1548003514403100e+00 -5 3 -1
2850 1 6.6713964748570689e+00 -5.0069834466667729e+00 -6.1329069017371773e-01 -2 -2 3
4929 1 1.8347641294994638e+01 2.0306568746205937e+01 2.7480137241099056e+00 4 -1 -1
7845 1 1.6537578532591176e+01 2.0021248696216809e+01 9.8313264690151314e+00 9 7 -1
6323 1 8.7972594421071175e+00 2.6738657909638814e+01 8.1483337772289044e+00 1 -1 -1
771 1 2.3788594763491673e+01 1.9766275531774163e+01 9.5180326238139790e-01 -5 -1 0
4630 1 2.5036110945338784e+01 1.6106758235381495e+01 2.3385887321376444e+00 -3 -1 -1
5979 1 1.0804858084108712e+01 2.1033494414152042e+01 -2.8074564794139012e-01 2 1 2
7197 1 1.4678408571929477e+01 2.0889359339648795e+01 6.7536604100677766e-01 4 1 2
279 1 1.7266721221920175e+01 2.0893836038114074e+01 7.3033521170284166e-02 -2 -2 -2
5692 1 2.0600582041444355e+01 1.9799362758290481e+01 1.6951981175366631e+00 0 0 7
885 1 2.5103469973964440e+01 2.2631444644337392e+01 1.0562942110604929e+00 -5 -1 5
4135 1 1.7117545274187066e+01 -6.5923321094872032e+00 6.2451941858824442e+00 -7 0 2
6127 1 1.2705116779252396e+01 2.2599941281717538e+01 -7.8873881078890484e-02 0 1 0
6960 1 1.2274755311575987e+01 2.0802814150288267e+01 2.4298461757457437e+00 6 0 -2
5194 1 1.4782926630618180e+01 2.3881153158217657e+01 1.1489638405827614e+00 4 1 5
1725 1 2.0246699560301316e+01 2.3703676128262344e+01 1.1006930067689575e+00 -3 -1 1
5565 1 2.3198510881433734e+01 2.4266901252842022e+01 1.5887663259725988e+00 1 2 7
5212 1 2.6128072516924032e+01 2.6681816681681600e+01 4.6421796107209303e+00 0 -1 6
5748 1 1.5877641251599410e+01 -6.5552604612451031e+00 2.6692072670041731e+00 3 1 -2
3718 1 2.1239791623877135e+01 -2.3266951150485156e+00 -9.3161468708962525e-01 -2 -4 1
1110 1 1.4140584331693958e+01 2.2432017987256714e+01 3.0320784796162812e+00 4 -2 3
6403 1 1.5207866200191217e+01 2.5396126599871412e+01 -8.4081944240451123e-01 -3 -1 2
2673 1 1.8702271845987305e+01 -6.2103282632031576e-01 1.1782900407057733e+01 1 0 0
7775 1 1.1175929570098898e+01 2.4671083890911319e+01 1.2240180387106541e+01 7 -3 -1
1057 1 7.1752316208720286e+00 1.6967015519578965e+01 -8.8866551757338641e-01 3 -2 0
1148 1 1.2379611339548003e+01 -5.8270321308153044e+00 2.4362417651918666e+00 1 -3 0
4300 1 1.0621771660648136e+01 -5.6706726778330765e+00 5.3901549183532218e+00 1 -5 2
1716 1 1.8902747088667819e+01 -5.2893374572535841e+00 1.1604103416744449e+00 -5 2 -1
5378 1 1.9034747101475741e+01 -5.8428869773265966e+00 3.5456223568282299e+00 0 -1 2
6788 1 1.6846872452804668e+01 -4.1637020870581738e+00 3.4206562787950610e+00 -7 3 2
4906 1 2.4452699662559112e+01 -5.6041748915218097e+00 2.5114532127630778e+00 2 -1 3
6495 1 1.2727027174829947e+01 6.1848187474878458e-01 1.2605922921685858e+01 2 2 2
6935 1 1.0118405225156790e+01 -3.7695082723828683e+00 3.4741719671390370e-01 0 0 5
687 1 9.3648524678160587e+00 -3.2821274661396345e+00 4.3394876580292534e+00 -1 2 -1
4399 1 1.3023184819519191e+01 -4.9779679568062836e+00 4.8066185802751047e+00 0 -7 4
3764 1 1.0680698911289946e+01 -2.6559546470546902e+00 2.1447988242149933e+00 3 3 6
1102 1 1.4917184952270050e+01 -1.1270637758004680e+00 2.1513788837595631e+00 -3 -1 2
3869 1 1.3129433970570361e+01 -3.5131605685174190e+00 1.8622981181025478e+00 2 0 1
5012 1 1.7039660694827415e+01 -2.5446239930029124e+00 1.3700989445087313e+00 3 -3 -4
674 1 2.5994715249256419e+01 -2.0113620494267632e+00 3.6781122480691009e+00 0 -5 0
1616 1 1.4870777644288955e+01 1.2771551960038082e+01 -6.7896359353758706e-01 5 1 -2
2470 1 7.7056035291099434e+00 -1.5177615693223716e+00 4.5300300050382063e+00 2 -4 2
2875 1 1.1400215866442565e+01 3.8985140704661436e-01 3.9833768068372848e+00 5 4 3
2421 1 1.2838058231296110e+01 -1.0012007733223971e+00 5.3235268581500792e+00 3 3 2
3532 1 1.7674436247868542e+01 -9.5086273781244302e-01 3.6874929242390824e+00 -1 3 -4
3766 1 2.5160460432636970e+01 2.3440538346446349e-01 3.5738022426015137e+00 -5 -2 5
6828 1 2.3972387807216140e+01 2.4053191208893530e+01 8.0734588626935135e+00 -1 3 3
2586 1 2.6674185231350357e+01 2.4463161544127651e+01 4.3568385423887008e+00 4 2 2
347 1 8.4179889090922071e+00 3.1666829044208651e+00 3.2319887360519086e+00 -2 3 3
6910 1 1.3443368791452567e+01 9.0205929111939120e-01 2.9482968222850401e+00 2 1 2
7795 1 1.5425120368887267e+01 3.9929393911166322e+00 4.5649695153659868e+00 -1 0 1
300 1 1.9560327454272588e+01 1.7045822419679908e+00 1.3586037122486756e+00 0 -4 2
6380 1 2.1607596588150052e+01 -1.2620617667927601e+00 1.1528384788476553e+00 5 0 -1
5503 1 2.4434057092852619e+01 6.4849588387088453e-01 1.3354986748069053e+00 -1 -1 -1
1188 1 1.6232582821177431e+01 -3.5085116143962085e+00 9.6192937386797031e+00 0 -3 1
6985 1 1.0895571013191814e+01 6.2165269773900089e+00 4.3572140418156202e+00 2 -1 2
6446 1 1.0081236885081889e+01 2.8552472879857440e+00 1.7523289693468866e+00 4 1 -4
5754 1 1.2224519262774017e+01 3.3788887878924925e+00 2.4439789873988778e+00 -2 -1 -3
4241 1 1.7551708434316183e+01 4.1912109858157081e+00 2.6882423322390636e+00 2 0 -4
2307 1 1.6104143670013880e+01 5.0671950573947608e+00 6.5965024475675644e+00 -6 5 -2
5668 1 2.0095378870017264e+01 5.8909465904546288e+00 4.5854794146028279e+00 -6 3 1
220 1 2.0632287457263189e+01 3.7265818277239635e+00 3.6144254226585835e+00 2 -2 4
5819 1 2.2096449829255633e+01 2.1554443478047478e+00 2.1663067604385184e+00 6 1 3
27 1 1.2441585650413856e+01 4.0825921194000010e+00 4.7218738957234612e+00 -5 0 0
5532 1 1.3297425526649924e+01 6.1601606314254749e+00 1.6961640889343590e+00 -2 2 -1
271 1 1.8226654221268248e+01 7.3769705540780652e+00 3.1859911712341198e+00 0 -1 -2
6196 1 2.0378162911613238e+01 6.7399063945324844e+00 1.8836820606861515e+00 -2 -1 -7
5290 1 2.4768554572862481e+01 3.1075635878607830e+00 2.4747161448028820e-01 5 -1 3
335 1 8.4664358733403375e+00 7.9614298243266060e+00 5.6561855682751707e+00 -1 2 4
3010 1 1.1716999098432680e+01 8.7107532156150995e+00 4.5997225722577175e+00 -6 1 -2
6505 1 1.4317893250504575e+01 8.7720505882874278e+00 2.9798593076519211e+00 -1 1 -1
1667 1 1.4438451030901149e+01 7.9232268522655644e+00 5.6571680821733930e+00 -1 0 4
489 1 1.7739357042033568e+01 9.5680663863156283e+00 1.8800369504777317e+00 -1 1 2
7571 1 2.0471930404557394e+01 9.7639046643301342e+00 1.3815656354586401e+00 -4 -6 4
6077 1 2.4042178924023169e+01 8.9942969969622411e+00 3.2024575199537058e+00 -2 -3 1
1047 1 2.6099398392106863e+01 4.9415016084576493e+00 6.5120036663903500e+00 -3 -3 2
1991 1 9.1576918938286376e+00 1.0490198888061698e+01 1.5909984824311549e+00 0 -2 -3
1904 1 1.0946264354250649e+01 1.3453140968458147e+01 4.2688173818491819e+00 0 5 2
6185 1 1.3364158810068520e+01 1.1000342262907999e+01 2.5016269009096845e+00 1 3 7
5940 1 1.6840677667100799e+01 1.2061687469758329e+01 4.3715442104368112e+00 2 -5 7
7421 1 1.9522044373732683e+01 1.1743599360695310e+01 3.1268057261626589e+00 4 1 0
2006 1 2.0855901943638191e+01 1.2631770431781284e+01 1.1545315437346662e+00 0 -2 -1
2080 1 2.3650284831958967e+01 1.3255345914966700e+01 4.6815034353553333e+00 3 2 4
6478 1 2.4371880204722320e+01 1.1635351395050360e+01 3.2059728938217695e+00 -4 5 1
2606 1 1.5106693402460431e+01 1.4296025404318161e+01 2.4727488291099009e+00 0 -3 -1
2683 1 1.8542780390611156e+01 1.4097315826575617e+01 4.5471455030529082e+00 -3 -1 4
6060 1 2.0405767838685946e+01 1.4917762604376382e+01 2.7344524452802079e+00 4 0 -5
6113 1 7.4559737801005870e+00 1.4001842384463838e+01 1.2820398765196370e+00 2 -3 0
2480 1 8.9095421748649883e+00 1.6647819797724633e+01 3.3291564206735762e+00 -4 1 1
3114 1 8.8419600624031816e+00 1.6411904586721882e+01 8.8990928607055420e-01 3 -2 1
5660 1 1.6999757943287001e+01 1.6389906724827423e+01 2.6027267742541174e+00 3 0 0
5701 1 1.8865176316995868e+01 1.5952127649513766e+01 1.0486628186782037e+00 3 0 0
6781 1 2.3384664916021652e+01 1.8120158263459235e+01 2.6288476216415511e+00 8 -4 5
7868 1 2.6062696550336749e+01 1.3668176537256379e+01 5.6328178913923432e+00 -1 5 -1
931 1 8.1752903621833592e+00 1.8751540832164451e+01 4.4560363393521092e+00 1 1 4
35 1 1.0248749320512330e+01 2.0566899211003417e+01 5.3307323282700665e+00 5 -1 3
4817 1 1.1218141763179993e+01 1.7964387709056954e+01 1.4623525680094112e+00 0 -5 2
1569 1 1.7182292444443160e+01 1.8606039344008448e+01 1.0550832135984605e+00 7 1 -6
1532 1 2.0981407404947866e+01 1.8342726060117847e+01 3.5144761496017045e+00 0 0 -1
2901 1 2.4527849620845984e+01 1.9592269630889209e+01 4.0341325255814056e+00 2 0 -2
7372 1 1.8627502505956862e+01 -1.8242872614133816e+00 -4.1904169967433302e-01 -4 2 2
5422 1 9.8357587659582233e+00 2.0358784248426414e+01 2.8217475413007951e+00 1 3 -2
7961 1 1.2347067426586509e+01 1.9601590120110355e+01 4.6668272375843571e+00 5 -5 -3
3097 1 1.5871912825212883e+01 1.9354484688957761e+01 4.3102388375410445e+00 -1 1 0
7346 1 1.9186707250904050e+01 2.1798644193549897e+01 4.5247846323486449e+00 0 -1 5
7048 1 2.2158415507895697e+01 2.3074120934013862e+01 5.0330119975794982e+00 1 -1 3
3076 1 2.1328493879512237e+01 2.1735025240973073e+01 2.6836160600654422e+00 -1 2 4
4014 1 2.3701638293443235e+01 2.1852051456840520e+01 2.9056030715534273e+00 3 -1 0
4779 1 8.8349314880490457e+00 1.5446701572054380e+00 1.2317502506733623e+01 -4 2 -4
3633 1 8.2801488072104998e+00 2.1921220900336696e+01 2.0755621229156849e+00 4 -2 0
5611 1 1.1702582429440390e+01 2.3696444049624013e+01 4.4734898411756951e+00 1 2 1
3376 1 1.6295599281557497e+01 2.1950608540226824e+01 4.0279517615619707e+00 -5 0 1
6560 1 1.7717462210946778e+01 2.3662304135916433e+01 2.6266936982108904e+00 -1 -4 0
1505 1 2.0113575167274782e+01 2.5908908421137344e+01 2.0301182247408271e+00 -3 2 -3
4474 1 2.5569885588547034e+01 2.2097268944001179e+01 7.3753144008416527e+00 -1 -4 0
5927 1 1.0911403491140057e+01 2.3533852341197193e+01 1.5193336491170513e+00 -5 -2 0
7975 1 7.6614417048567143e+00 1.4244805059456631e+00 6.6684746585591204e-01 2 -4 1
478 1 2.6368338240644906e+01 5.4131163229008479e+00 1.1535190592543069e+01 -4 4 -2
5237 1 1.2285052308978724e+01 2.5417851968801539e+01 2.3321201710395707e+00 4 1 -2
6367 1 1.8818128538999073e+01 2.5205798236919872e+01 4.2764611047973373e+00 -2 3 0
4447 1 2.2577306568365039e+01 2.6474953613791218e+01 2.8182813557337614e+00 -5 4 -3
4901 1 2.4975355285394865e+01 2.2923991194251098e+01 5.1626374858716941e+00 2 0 -1
5214 1 8.2423029212566892e+00 2.2117028397848927e+01 1.2593677552762305e+01 -5 2 4
4628 1 2.1888321134519579e+01 2.5559359773748209e+01 8.2300030079790911e+00 -1 2 2
3268 1 1.9318005751971533e+01 1.8207437767617765e+01 2.4929386327476077e-01 -4 -3 -1
2229 1 1.2816087092970520e+01 -4.1877648121114444e+00 8.1991190357170431e+00 4 1 -4
224 1 2.5685182544285237e+01 -2.7969960355333150e+00 9.5477276486289693e+00 3 -3 0
2481 1 1.3970059275010735e+01 -2.7393883518531865e+00 4.1497022223068516e+00 1 4 -1
463 1 1.8143120425059983e+01 1.2911722538199019e+01 -7.7748356636804150e-01 2 -1 2
2271 1 2.2873607391062411e+01 -6.2873251631682781e+00 4.4709745035425215e+00 -1 1 -2
6241 1 2.0457243963783093e+01 2.5587244298186274e+01 1.1320802700626038e+01 -1 2 -3
4366 1 2.4352088519854650e+01 1.7782840946251977e+01 -8.5542419737262421e-01 5 -3 2
3852 1 1.1555428750836136e+01 -3.0833038068571206e+00 6.4311348459047979e+00 -1 6 4
668 1 1.4920587144799956e+01 -4.2797231259233168e+00 6.8849118496966444e+00 -7 2 -1
2459 1 1.8802482569947102e+01 -3.7343698206851412e+00 6.1962966304239302e+00 1 -4 -1
7334 1 1.6311455218935656e+01 -2.8220420514581326e+00 5.2685130443058492e+00 -3 2 3
7746 1 2.2892888264479112e+01 -4.1657373770200365e+00 5.6176205658461580e+00 2 0 -2
301 1 2.4222706979327949e+01 -3.3438290073535457e+00 3.5568587825310338e+00 -3 0 -3
3398 1 9.6298914635964312e+00 1.3547615983684672e+01 -1.0945318137860012e+00 5 1 -1
1084 1 8.7602607020448549e+00 -1.1298886743597496e+00 6.7746029715658089e+00 -1 -1 2
2866 1 8.7273626717475459e+00 -4.6352071797341363e+00 6.6565347643777519e+00 0 2 2
368 1 1.4801065806443088e+01 1.6956166539739748e-02 6.1270354601265149e+00 0 -1 3
4415 1 1.6161547870666990e+01 1.0416672102554259e+00 4.0469682377800442e+00 0 -1 -1
5820 1 1.9364155347119198e+01 -3.1347337271473625e+00 3.2770888464246219e+00 -2 3 -2
4435 1 1.9489815594987043e+01 -1.3344279933890935e-01 5.8250401202478583e+00 -5 5 3
5854 1 2.1394668458725661e+01 -2.3404512688141814e+00 5.1146461706210724e+00 8 0 -1
7978 1 1.0841664001116083e+01 2.1998248374295226e-01 6.8833688996881168e+00 0 -1 -1
5406 1 1.8755301331921522e+01 1.9743379025222847e+00 4.1145353158149360e+00 0 1 2
5397 1 1.7938483016787842e+01 2.4088100439555635e+00 6.2170889726642669e+00 4 1 5
921 1 2.0287374498794414e+01 -4.0825653930532191e-01 3.0716887606042196e+00 0 2 4
7508 1 7.7612644106855377e+00 9.1257862109410581e-01 4.5672614042605852e+00 4 -2 5
7855 1 7.7615877696393349e+00 4.8637963129861195e+00 6.7390257713728250e+00 -5 -7 3
4131 1 1.0380192327068974e+01 2.2425688942707875e+00 5.0738641777547038e+00 -6 3 5
1082 1 1.1013669908496173e+01 3.9912392438696678e+00 7.1836459035283369e+00 -2 1 3
7482 1 1.4377060893014798e+01 5.9270178704792027e+00 3.8669113181632193e+00 5 0 -4
1485 1 1.8669069823090457e+01 4.5569029482188110e+00 6.1885006167457446e+00 -1 -6 -4
3075 1 2.2111060953475718e+01 3.3360819871602665e+00 6.0465129237389563e+00 2 3 0
3338 1 2.5441393296359738e+01 3.9076086028172448e+00 3.9724277667679582e+00 1 0 -1
4 1 6.5100209409592278e+00 8.7814500947532750e+00 6.9921562328646463e+00 0 -1 1
2005 1 1.3444585017479636e+01 5.5606671280664575e+00 6.9724267694813360e+00 3 1 -2
3235 1 2.1390403440813593e+01 8.5559528363890482e+00 3.5330070542738206e+00 0 -9 2
6169 1 2.3564429719089521e+01 2.5659198250092707e+00 4.2389359547267729e+00 1 -3 4
1913 1 2.5083104528983924e+01 7.0341192151097918e+00 4.2248588473416167e+00 -2 2 -5
6254 1 2.0273213977366421e+01 -6.1370624410732360e+00 5.8095167219069079e+00 -1 1 1
7184 1 8.6084884231078487e+00 9.9321832800234091e+00 4.3107210357677097e+00 -3 -1 4
1174 1 7.8479641173442261e+00 -2.6689296684173396e+00 -5.6433883232475379e-01 2 3 -4
3430 1 1.2839502733654070e+01 7.9769711496174036e+00 7.6428524003524902e+00 3 -1 0
1460 1 1.6451551919225793e+01 7.7711209527279337e+00 7.2494666973923909e+00 0 -1 -3
7251 1 1.7520496475435898e+01 9.7120409355082735e+00 6.3324071655761420e+00 -3 3 2
3422 1 1.6062589036976441e+01 1.1820147611226862e+01 6.9455170678013793e+00 -2 1 -1
7416 1 1.6597670436657587e+01 9.4072879645624532e+00 3.9857177765319021e+00 0 6 1
4196 1 1.9807187509207608e+01 9.7369244726196449e+00 5.1345651019394101e+00 -1 0 -2
4657 1 7.0482741664099668e+00 8.4374157295835381e+00 2.6704332745361401e+00 5 -5 4
7529 1 2.3362467593213118e+01 5.1572445991595313e+00 4.0116369367816667e+00 -1 1 -7
1134 1 1.0989943859068067e+01 1.0667607275069162e+01 3.3491493833013637e+00 -2 1 4
5111 1 1.4229917125984759e+01 1.2065110955162453e+01 4.5681768524220141e+00 1 2 -1
6039 1 1.9679128962192415e+01 1.2474620255050421e+01 7.1586268577196748e+00 -6 1 7
7950 1 2.2434307073443552e+01 1.0590306088586548e+01 5.4808367395991864e+00 4 3 -1
7172 1 2.4884630881269054e+01 9.8227356596076021e+00 5.4917546878110235e+00 0 3 1
520 1 7.7406190871827389e+00 1.1723837422752961e+01 5.2350443405918954e+00 -1 0 2
1715 1 9.0536780857702546e+00 1.3660735244796577e+01 5.8713390247140413e+00 -2 4 4
6591 1 1.2607742361496520e+01 1.4875274329891777e+01 2.2730592347628820e+00 4 -2 3
441 1 1.4365607884309899e+01 1.4419081849903186e+01 5.0660818864993242e+00 0 3 -1
2149 1 2.0723569368619998e+01 1.2720435543715311e+01 5.0764491756673662e+00 0 1 -4
1091 1 2.0367155860826323e+01 1.5458844028102803e+01 8.0800821801855207e+00 -3 4 1
7168 1 6.9476204602786016e+00 5.5289878211040406e+00 1.1572798166533151e+01 2 -2 0
1996 1 1.0663086447038879e+01 1.6045266131837504e+01 4.5795051851571307e+00 0 0 0
168 1 1.2562591898107513e+01 1.7316889486678143e+01 3.8258004052220551e+00 1 -4 0
1553 1 1.5032475695825193e+01 1.6616687637637067e+01 4.3328422039940033e+00 -1 5 6
1028 1 1.8002463507844112e+01 1.4630056214610978e+01 6.8047728892265056e+00 -2 0 3
7883 1 2.3138734684661891e+01 1.6034441459082370e+01 7.6609313465264091e+00 6 2 4
1759 1 2.0648751258015274e+01 1.5668921771786000e+01 5.4494651925205027e+00 -3 -3 -3
1792 1 2.2822827128435673e+01 1.6753881165975312e+01 5.3697958348629244e+00 -1 -2 -6
3822 1 7.8524042373650413e+00 -1.0657991324485296e+00 1.1420379194252671e+01 1 3 1
6271 1 8.0859198342146623e+00 1.7568213478584390e+01 6.3781528734380384e+00 1 0 0
826 1 1.1757906768018373e+01 1.7303335031938438e+01 6.8285903835424211e+00 1 -3 -2
2310 1 1.7947860100513488e+01 1.8307328377328592e+01 4.0315179065104285e+00 2 3 -5
6312 1 1.5389921931423029e+01 1.8259804648722312e+01 6.4905661723915333e+00 -3 4 -1
4828 1 2.3124363783200891e+01 1.8879457949837050e+01 5.9884303551416087e+00 -2 -1 5
3610 1 7.3973730510469524e+00 2.3461874905037774e+01 3.6544713088322585e+00 2 0 1
4871 1 1.2145427724821719e+01 2.2117271310988851e+01 6.3214454586116950e+00 -1 -1 0
4951 1 1.3978181192067568e+01 2.2020695877132326e+01 7.8813297894749521e+00 -4 1 -2
7313 1 1.7977374001692255e+01 2.0998528153443367e+01 6.3079786800494455e+00 5 3 -1
945 1 1.9426009462107316e+01 1.7706602526396477e+01 6.0932986334061843e+00 6 -1 0
1769 1 2.1329983149657053e+01 2.0329935039138380e+01 5.0280408354699686e+00 0 2 2
4403 1 2.5474402597301058e+01 1.9752276720629752e+01 6.5847571574361492e+00 1 1 3
6277 1 7.4466687060917280e+00 2.1589689649366345e+01 5.3767335219904941e+00 1 6 -2
890 1 1.5059845042734374e+01 2.3351995489499675e+01 6.1664383664852078e+00 3 -2 3
2742 1 1.9979583611002539e+01 2.3828965535491086e+01 5.6609900569676759e+00 -1 0 0
1141 1 1.8225848170633373e+01 2.2979438497595549e+01 7.9590089672634203e+00 4 -3 -4
6353 1 2.1388863135092798e+01 2.6270935973587111e+01 5.8416884027994538e+00 2 3 4
6090 1 2.3462697282595062e+01 2.5044778509576535e+01 4.9177211011927104e+00 -3 0 -4
6300 1 2.5056671184713672e+01 2.6195467736372773e+01 7.0948551591337043e+00 -2 -4 5
4877 1 2.2770858386835283e+01 2.4733551312415575e+01 1.2008820079508833e+01 1 2 4
3796 1 2.6632095371240016e+01 1.7459640092211661e+01 4.2160165930536877e+00 -3 3 -1
6679 1 7.1202550335675205e+00 1.9564054973525206e+01 7.7842958767874642e+00 -1 1 6
882 1 1.4055424705702743e+01 2.5059918554949189e+01 4.5363788737365329e+00 5 1 5
6793 1 1.6214930268402721e+01 2.5509268048998788e+01 2.9648047556180606e+00 -3 1 5
4941 1 1.6679080886749645e+01 2.4752906986135329e+01 7.4811239880632403e+00 -3 4 4
2117 1 2.4356298989149295e+01 2.6378321071388459e+01 1.8640039312122103e-01 4 2 0
7926 1 1.2963309313860577e+01 -3.3055791982590463e+00 -6.2976955495157205e-01 -2 5 -1
5176 1 6.7639640626771964e+00 8.0852556420592094e+00 1.1811988883239314e+01 4 3 2
6838 1 9.6423470536082849e+00 -5.2176795490103851e+00 1.0361206508251838e+01 -2 0 1
6835 1 2.5227368847092869e+01 2.5874022117546989e+01 1.1836837767573849e+01 -2 5 0
4794 1 1.8556740895850744e+01 -6.4077241591009999e+00 9.5971745052842934e+00 1 0 -4
5609 1 1.9245125444987757e+01 -5.6143692841657247e+00 1.1876817778891549e+01 -4 2 -6
1355 1 2.4613796959576199e+01 -6.4425441521258735e+00 7.1344709949552776e+00 1 -3 1
6172 1 1.1106150386763698e+01 -1.5665850287470278e+00 8.2742898107676126e+00 -3 0 0
4563 1 1.3530629337266161e+01 -4.5417773003670447e-02 8.4963042745929265e+00 1 4 1
252 1 1.6455185033188158e+01 -6.0670388845350729e+00 8.6126922948923781e+00 0 -3 6
2740 1 1.9930680841011871e+01 -2.2693076185048291e+00 9.4864301859904892e+00 -6 1 -6
2254 1 2.0977052214992746e+01 -3.9101898239721975e+00 7.7979812593009203e+00 1 -1 -1
4700 1 2.4335155706350289e+01 -3.3429508703221291e+00 7.3577687204421576e+00 1 2 -5
6240 1 9.2046793023394500e+00 -3.6006933556620204e+00 8.5807032147055970e+00 -2 -2 2
7854 1 1.2925879587678919e+01 2.2264781864682153e+00 9.9416426836114358e+00 3 1 1
4512 1 1.8557514194252953e+01 -1.6687143749164530e+00 7.4022798619265977e+00 -1 -5 -1
2180 1 2.1608839794841149e+01 -6.3128534663378577e-01 6.6661779217217827e+00 -3 4 -3
4776 1 2.5482710751705259e+01 7.3682014662586681e-01 7.7927791260651276e+00 1 -3 0
3111 1 2.4039384544672917e+01 -1.8319235114967025e-01 9.4335657184536466e+00 0 1 -1
3493 1 8.0216253537386919e+00 3.2526662541274742e-01 9.0786439093629365e+00 -1 6 0
6983 1 1.0934524330867610e+01 6.9843974482819160e-01 1.1115215177614191e+01 0 2 4
1704 1 1.0515690130120515e+01 1.6629056745470567e+00 8.8425239306801089e+00 0 -1 -4
2792 1 1.5326950039034193e+01 2.1792001743743814e+00 6.8204562984514343e+00 0 -2 -6
483 1 1.9958633954255220e+01 2.0652642636893308e+00 7.6300168607427050e+00 5 -3 -3
4820 1 2.2407006505019773e+01 1.5853797912637262e+00 8.6153351720430766e+00 -1 3 0
1362 1 2.3714555268882286e+01 6.3664768234457991e-01 5.8715563077009856e+00 -2 -1 2
6725 1 8.5356398888602243e+00 2.4333887365683111e+00 7.0880053798079334e+00 -3 -2 -2
1659 1 1.0375505163141625e+01 6.4142887136497233e+00 7.2128276500468438e+00 -3 1 3
3592 1 1.1077048083683867e+01 4.8643313358166438e+00 1.0204451025259214e+01 2 -3 0
559 1 1.3267368604203620e+01 4.2831535356473101e+00 8.8481038942152992e+00 2 6 3
878 1 1.9635277906564518e+01 3.7198676580880985e+00 9.2225390907862383e+00 0 3 -3
519 1 2.1834381608644701e+01 6.8067613707954191e+00 5.4379599402709786e+00 0 3 1
5604 1 2.0915449409380464e+01 5.2113325522406146e+00 7.7111993408623150e+00 1 -1 -1
3540 1 2.3111434559327247e+01 3.8358280420429338e+00 8.8600327716209097e+00 5 -2 4
2489 1 7.5010494511135057e+00 -3.7416973624449752e+00 2.4003447093519523e+00 0 -1 2
3321 1 7.5857058858473234e+00 8.4076608873882552e+00 9.5388087206157746e+00 3 0 -2
5513 1 1.4669870741407520e+01 7.5178826076231822e+00 9.2902226948011553e+00 1 -4 2
1654 1 1.7888262493988190e+01 5.6962302266244116e+00 8.4572943311693045e+00 -2 0 3
4648 1 1.5608550479512974e+01 4.6822329307425932e+00 9.6500658420206484e+00 2 2 3
7741 1 1.9786866153782874e+01 8.0911130955248183e+00 7.2993997451904526e+00 -2 -2 7
3938 1 2.1635613107532503e+01 7.2883213359163683e+00 9.0460854424555084e+00 -4 2 -6
4496 1 2.3690574926913733e+01 5.6039725892755374e+00 7.0230200819494879e+00 -4 4 -5
2322 1 1.1920241141402681e+01 1.4795103910955870e+01 1.1799100540745386e+01 2 -1 -3
5647 1 1.0412467042148155e+01 9.2636588165214491e+00 6.6479661337207965e+00 1 2 4
4175 1 1.2617559563891353e+01 9.1754619427998598e+00 1.0279505997269457e+01 -5 2 2
4881 1 1.3390265096186436e+01 1.0541766855487246e+01 6.3155809880133793e+00 0 -1 1
5547 1 1.6122891850736377e+01 9.3730672799934922e+00 9.7097183225150854e+00 4 -1 -2
7661 1 2.1616490267609706e+01 1.0456571224895374e+01 1.0210702036390774e+01 -1 5 -5
6158 1 2.3319241597542796e+01 8.4254221865844894e+00 7.3529228624225400e+00 -2 -1 -3
136 1 2.5137015841203471e+01 1.2396046580244082e+01 1.0488330242624491e+01 1 5 3
1470 1 6.6439337236694502e+00 1.1854026714292061e+01 7.8309468910853681e+00 1 -5 6
5792 1 9.2445560108622935e+00 1.1686517545453619e+01 8.3663130734447826e+00 3 -4 -5
3230 1 1.1348964172545099e+01 1.1997063638251330e+01 6.8423970481023524e+00 2 2 4
1323 1 1.4660683690141772e+01 1.1150543715278921e+01 9.0631554132996950e+00 0 2 -1
105 1 1.8371252553971953e+01 1.0247372827997207e+01 9.1788058689155765e+00 4 4 2
4658 1 2.1236439145754407e+01 1.0167543839118771e+01 7.7246971856553426e+00 4 0 1