LAMMPS (23 Jun 2022)
Processor partition = 1
OMP_NUM_THREADS environment is not set. Defaulting to 1 thread. (../comm.cpp:98)
  using 1 OpenMP thread(s) per MPI task
# dyncamics Clausius-Clapeyron integration forward integration

variable Tcoex    equal 0.77
variable Pcoex    equal 1.0
variable phase    world solid liquid
variable dt       equal 0.004
variable Tdamp    equal 100*${dt}
variable Tdamp    equal 100*0.004
variable Pdamp    equal 1000*${dt}
variable Pdamp    equal 1000*0.004
variable lambda   equal 1.0
variable Pi       equal 1.0
variable Pf       equal 174
variable seed     equal 69
variable t_eq     equal 50000
variable t_sc     equal 50000
variable epsilon  equal 1.0
variable sigma    equal 1.0
variable rc       equal 3.5*${sigma}
variable rc       equal 3.5*1

units             lj
boundary          p p p
atom_style        atomic

read_data         ${phase}/forward.lammps
read_data         liquid/forward.lammps
Reading data file ...
  orthogonal box = (0 0 0) to (8.32159 8.32159 8.32159)
  2 by 2 by 3 MPI processor grid
  reading atoms ...
  500 atoms
  reading velocities ...
  500 velocities
  read_data CPU = 0.007 seconds

pair_style        lj/cut ${rc}
pair_style        lj/cut 3.5
pair_coeff        * * ${epsilon} ${sigma}
pair_coeff        * * 1 ${sigma}
pair_coeff        * * 1 1
pair_modify       shift no tail yes

neighbor          1.0 bin
neigh_modify delay 0

timestep          ${dt}
timestep          0.004

reset_timestep    0

variable rnd equal round(random(0,999,${seed}))
variable rnd equal round(random(0,999,69))
fix f1 all nph iso ${Pcoex} ${Pcoex} ${Pdamp}
fix f1 all nph iso 1 ${Pcoex} ${Pdamp}
fix f1 all nph iso 1 1 ${Pdamp}
fix f1 all nph iso 1 1 4
fix f2 all langevin ${Tcoex} ${Tcoex} ${Tdamp} ${rnd} zero yes
fix f2 all langevin 0.77 ${Tcoex} ${Tdamp} ${rnd} zero yes
fix f2 all langevin 0.77 0.77 ${Tdamp} ${rnd} zero yes
fix f2 all langevin 0.77 0.77 0.4 ${rnd} zero yes
fix f2 all langevin 0.77 0.77 0.4 361 zero yes
compute           c1 all temp/com
fix_modify        f1 temp c1
fix_modify        f2 temp c1

run               ${t_eq}
run               50000
Generated 0 of 0 mixed pair_coeff terms from geometric mixing rule
Neighbor list info ...
  update every 1 steps, delay 0 steps, check yes
  max neighbors/atom: 2000, page size: 100000
  master list distance cutoff = 4.5
  ghost atom cutoff = 4.5
  binsize = 2.25, bins = 4 4 4
  1 neighbor lists, perpetual/occasional/extra = 1 0 0
  (1) pair lj/cut, perpetual
      attributes: half, newton on
      pair build: half/bin/atomonly/newton
      stencil: half/bin/3d
      bin: standard
Per MPI rank memory allocation (min/avg/max) = 3.011 | 3.012 | 3.013 Mbytes
   Step          Temp          E_pair         E_mol          TotEng         Press          Volume    
         0   0.80468855    -6.1279452      0             -4.9233264      1.0167281      576.26062    
     50000   0.77095077    -6.1543252      0             -5.0002119      0.83235859     578.10364    
Loop time of 11.0343 on 12 procs for 50000 steps with 500 atoms

Performance: 1566027.751 tau/day, 4531.330 timesteps/s
99.6% CPU use with 12 MPI tasks x 1 OpenMP threads

MPI task timing breakdown:
Section |  min time  |  avg time  |  max time  |%varavg| %total
---------------------------------------------------------------
Pair    | 4.8434     | 5.1033     | 5.3942     |   8.4 | 46.25
Neigh   | 0.23934    | 0.24169    | 0.24592    |   0.4 |  2.19
Comm    | 2.9496     | 3.2564     | 3.516      |  10.4 | 29.51
Output  | 3.1641e-05 | 3.2205e-05 | 3.4392e-05 |   0.0 |  0.00
Modify  | 2.0667     | 2.0928     | 2.1198     |   1.1 | 18.97
Other   |            | 0.34       |            |       |  3.08

Nlocal:        41.6667 ave          45 max          36 min
Histogram: 1 0 0 0 2 2 3 1 2 1
Nghost:        1730.25 ave        1751 max        1707 min
Histogram: 1 1 0 1 3 1 2 1 0 2
Neighs:        6828.08 ave        7375 max        6238 min
Histogram: 2 1 0 0 2 1 2 2 1 1

Total # of neighbors = 81937
Ave neighs/atom = 163.874
Neighbor list builds = 971
Dangerous builds = 0

fix f3 all adapt/dcci ${lambda} pair lj/cut fscale * *
fix f3 all adapt/dcci 1 pair lj/cut fscale * *
thermo_style custom step temp ke pe etotal press vol
thermo 100
thermo_modify flush yes norm no
dcci              ${Tcoex} ${Pcoex} ${lambda} f3 f1 ${t_sc} press ${Pi} ${Pf}
dcci              0.77 ${Pcoex} ${lambda} f3 f1 ${t_sc} press ${Pi} ${Pf}
dcci              0.77 1 ${lambda} f3 f1 ${t_sc} press ${Pi} ${Pf}
dcci              0.77 1 1 f3 f1 ${t_sc} press ${Pi} ${Pf}
dcci              0.77 1 1 f3 f1 50000 press ${Pi} ${Pf}
dcci              0.77 1 1 f3 f1 50000 press 1 ${Pf}
dcci              0.77 1 1 f3 f1 50000 press 1 174

CITE-CITE-CITE-CITE-CITE-CITE-CITE-CITE-CITE-CITE-CITE-CITE-CITE

Your simulation uses code contributions which should be cited:

- dcci command:

@article{cajahuaringa2021,
  author={Samuel Cajahuaringa and Alex Antonelli},
  title={Non-equilibrium free-energy calculation of phase-boundaries using LAMMPS},
  journal={Comput. Mater. Sci.},
  volume={207},
  pages={111275},
  year={2022},
  publisher={Elsevier}
}

CITE-CITE-CITE-CITE-CITE-CITE-CITE-CITE-CITE-CITE-CITE-CITE-CITE

Generated 0 of 0 mixed pair_coeff terms from geometric mixing rule
Per MPI rank memory allocation (min/avg/max) = 3.011 | 3.012 | 3.014 Mbytes
   Step          Temp          KinEng         PotEng         TotEng         Press          Volume    
     50000   0.77095077     577.05665     -3077.1626     -2500.1059      0.83235859     578.10364    
     50100   0.77798046     582.31838     -3081.2741     -2498.9557      1.2560922      572.41106    
     50200   0.79203842     592.84076     -3091.0209     -2498.1801      1.4746122      567.11832    
     50300   0.79300663     593.56546     -3096.8913     -2503.3259      1.8498274      562.1036     
     50400   0.78790545     589.74723     -3062.8839     -2473.1367      2.3760539      557.52564    
     50500   0.77381603     579.2013      -3119.8193     -2540.618       1.9460156      555.51918    
     50600   0.75213806     562.97534     -3115.4692     -2552.4939      2.2315522      550.67924    
     50700   0.75591204     565.80016     -3078.1156     -2512.3154      3.087659       542.63469    
     50800   0.81523333     610.20215     -3081.1334     -2470.9312      3.2375448      539.7081     
     50900   0.72326912     541.36694     -3065.7095     -2524.3425      3.0976217      541.31948    
     51000   0.73181972     547.76706     -3057.7368     -2509.9697      3.1977672      540.33595    
     51100   0.77587325     580.74113     -3034.5157     -2453.7745      3.723825       535.23517    
     51200   0.75812259     567.45476     -3025.7292     -2458.2744      3.9371535      530.98517    
     51300   0.75354044     564.02502     -3041.5144     -2477.4894      3.9262829      528.58936    
     51400   0.75080378     561.97663     -2965.1546     -2403.178       4.5799021      525.99662    
     51500   0.73343194     548.9738      -3033.4034     -2484.4296      3.9012921      526.28744    
     51600   0.73316223     548.77193     -3042.2768     -2493.5049      4.0740294      521.6116     
     51700   0.75481028     564.97549     -3029.8309     -2464.8554      4.8127878      512.78443    
     51800   0.75784209     567.2448      -3009.0873     -2441.8425      5.0084176      510.75124    
     51900   0.73385011     549.28681     -3038.1477     -2488.8609      4.4659413      514.42548    
     52000   0.75827933     567.57208     -3035.3582     -2467.7862      4.5414997      512.69006    
     52100   0.76933194     575.84496     -2965.6339     -2389.7889      5.3573907      506.82589    
     52200   0.81213264     607.88128     -2983.2103     -2375.329       5.2158985      506.53309    
     52300   0.77729133     581.80256     -2984.189      -2402.3864      4.8613115      509.7407     
     52400   0.7406731      554.39382     -2970.3947     -2416.0009      4.9508388      508.33507    
     52500   0.8104305      606.60723     -2928.0881     -2321.4809      5.6057274      502.81904    
     52600   0.76415936     571.97328     -2918.4475     -2346.4742      5.8028028      498.95964    
     52700   0.79869528     597.82341     -2942.6455     -2344.822       5.6272539      498.81491    
     52800   0.76312152     571.19646     -2850.2276     -2279.0311      5.9581914      500.01056    
     52900   0.79180934     592.66929     -2890.3263     -2297.657       5.5244411      502.04717    
     53000   0.7596822      568.62213     -2919.9008     -2351.2787      5.3877125      499.8975     
     53100   0.74756132     559.54965     -2812.2426     -2252.6929      6.4602284      491.72147    
     53200   0.80163749     600.02566     -2804.6944     -2204.6687      6.6968416      488.3919     
     53300   0.78832978     590.06484     -2865.3013     -2275.2365      6.0082309      492.94339    
     53400   0.79473511     594.85923     -2889.5404     -2294.6812      5.577571       496.26312    
     53500   0.77455971     579.75794     -2800.404      -2220.6461      6.3031884      490.53367    
     53600   0.77869025     582.84965     -2697.9556     -2115.106       7.3722437      482.20987    
     53700   0.76580239     573.20309     -2738.5008     -2165.2977      6.9663741      483.44923    
     53800   0.801387       599.83817     -2746.393      -2146.5549      6.5075898      489.04758    
     53900   0.78635191     588.58441     -2718.4513     -2129.8669      6.3830542      491.88676    
     54000   0.78911508     590.65264     -2689.4495     -2098.7968      6.7717718      486.8472     
     54100   0.85441133     639.52688     -2648.6017     -2009.0748      7.4989263      479.49266    
     54200   0.77276154     578.41202     -2696.0015     -2117.5895      7.0698797      479.61862    
     54300   0.76335526     571.37141     -2711.1971     -2139.8257      6.8095911      480.63101    
     54400   0.75998948     568.85213     -2609.3962     -2040.5441      7.4221427      478.03599    
     54500   0.74175931     555.20685     -2618.2043     -2062.9974      7.3631694      477.44582    
     54600   0.74109293     554.70806     -2613.1883     -2058.4803      7.2426379      478.35177    
     54700   0.76071537     569.39545     -2608.7936     -2039.3982      7.3603597      476.49783    
     54800   0.76861738     575.31011     -2544.2791     -1968.969       7.7356754      473.7521     
     54900   0.75022801     561.54567     -2511.5639     -1950.0182      7.8316116      473.46493    
     55000   0.80058102     599.2349      -2494.9251     -1895.6902      7.7460469      475.25499    
     55100   0.82633261     618.50996     -2568.4727     -1949.9627      7.2737099      476.14001    
     55200   0.8170209      611.54015     -2422.4912     -1810.951       8.1160103      472.39751    
     55300   0.81485418     609.91836     -2420.8895     -1810.9712      8.2165775      469.85762    
     55400   0.83909969     628.06612     -2466.2751     -1838.209       7.8835637      471.31946    
     55500   0.74645177     558.71915     -2408.3897     -1849.6705      7.9119908      471.53423    
     55600   0.84929566     635.6978      -2431.9309     -1796.2331      8.0942097      468.2349     
     55700   0.80288667     600.96067     -2450.8282     -1849.8676      8.0489648      466.31955    
     55800   0.78061864     584.29306     -2414.298      -1830.005       8.2638915      463.78334    
     55900   0.75681578     566.47661     -2425.5959     -1859.1193      8.2358447      462.12992    
     56000   0.75133322     562.37291     -2425.1707     -1862.7978      8.2006755      461.83785    
     56100   0.769451       575.93408     -2368.5477     -1792.6137      8.3138846      462.68526    
     56200   0.72680783     544.01566     -2341.758      -1797.7423      8.3788143      461.54958    
     56300   0.77623799     581.01414     -2355.7796     -1774.7654      8.5059642      458.84551    
     56400   0.78427741     587.03164     -2304.7945     -1717.7629      8.6686809      458.50548    
     56500   0.77594321     580.79349     -2291.6675     -1710.874       8.4758535      460.8239     
     56600   0.75269217     563.39009     -2326.6779     -1763.2878      8.2611435      460.55631    
     56700   0.73453674     549.80075     -2209.2281     -1659.4274      9.0278128      455.01544    
     56800   0.8188347      612.89777     -2120.1233     -1507.2256      9.6086227      452.10607    
     56900   0.77366022     579.08467     -2256.252      -1677.1673      8.3407952      460.89213    
     57000   0.76385747     571.74732     -2311.52       -1739.7727      7.7846975      465.26855    
     57100   0.81494854     609.98898     -2109.5392     -1499.5503      9.1519761      455.80944    
     57200   0.78044582     584.16369     -1981.5526     -1397.3889      10.005163      448.9757     
     57300   0.83422331     624.41615     -2174.8        -1550.3839      8.8962915      454.51432    
     57400   0.74511389     557.71775     -2206.2735     -1648.5558      8.3228248      459.20251    
     57500   0.81145695     607.37553     -2147.0349     -1539.6593      8.9837672      452.6364     
     57600   0.78056191     584.25059     -1942.0138     -1357.7632      9.9868487      447.45812    
     57700   0.73193463     547.85307     -2086.5346     -1538.6815      9.1463182      450.54991    
     57800   0.72664885     543.89666     -2053.7705     -1509.8739      9.0159445      452.77445    
     57900   0.78415116     586.93714     -2081.0503     -1494.1132      9.156336       449.34085    
     58000   0.74242146     555.70246     -1948.5379     -1392.8354      9.8247752      444.61424    
     58100   0.77110632     577.17308     -1953.4578     -1376.2847      9.8245986      444.81385    
     58200   0.81938244     613.30776     -1997.2114     -1383.9036      9.2613317      449.65139    
     58300   0.80717311     604.16907     -1918.0342     -1313.8651      9.3148671      451.88963    
     58400   0.77960872     583.53713     -1904.5377     -1321.0006      9.4830271      449.08317    
     58500   0.77363321     579.06446     -1844.4372     -1265.3728      9.8815424      444.81036    
     58600   0.74724973     559.31642     -1857.6096     -1298.2931      9.9493417      442.30745    
     58700   0.82231934     615.50603     -1917.6194     -1302.1134      9.7065856      443.46666    
     58800   0.73232644     548.14634     -1843.2393     -1295.093       9.5874831      445.72849    
     58900   0.78969779     591.0888      -1899.0005     -1307.9117      9.5435243      444.26565    
     59000   0.78709411     589.13994     -1781.4488     -1192.3089      9.9598122      442.49523    
     59100   0.73969566     553.6622      -1962.3887     -1408.7265      9.2978921      441.72328    
     59200   0.74798929     559.86998     -1831.3206     -1271.4506      9.9853127      437.82377    
     59300   0.77926685     583.28124     -1791.1496     -1207.8684      10.18274       436.3411     
     59400   0.766307       573.58079     -1821.804      -1248.2233      9.8633466      438.26168    
     59500   0.74822931     560.04964     -1727.9843     -1167.9347      10.048774      439.11407    
     59600   0.75404275     564.401       -1715.2926     -1150.8916      10.070549      438.24653    
     59700   0.7535527      564.0342      -1715.7941     -1151.7599      10.175066      435.84178    
     59800   0.74174389     555.1953      -1663.9052     -1108.7099      10.391716      434.72732    
     59900   0.75149382     562.49312     -1682.2319     -1119.7388      10.115924      436.65629    
     60000   0.77732409     581.82708     -1641.3846     -1059.5575      10.185365      437.30889    
     60100   0.73037505     546.68572     -1735.5672     -1188.8815      9.9453708      435.0116     
     60200   0.76452467     572.24671     -1665.7544     -1093.5077      10.507909      429.79854    
     60300   0.77219182     577.98558     -1499.8286     -921.84307      11.029175      429.00341    
     60400   0.79664831     596.29126     -1647.5086     -1051.2174      10.142205      434.98664    
     60500   0.74046509     554.23812     -1695.5532     -1141.3151      9.6399503      437.87957    
     60600   0.74414228     556.9905      -1501.6442     -944.6537       10.695154      431.04289    
     60700   0.72831202     545.14155     -1407.9233     -862.78179      11.238565      426.01261    
     60800   0.75837646     567.64478     -1576.4406     -1008.7958      10.622246      427.29774    
     60900   0.79454785     594.71907     -1622.1033     -1027.3843      10.174947      431.20362    
     61000   0.77690114     581.5105      -1457.5244     -876.01394      10.507997      432.44592    
     61100   0.75466196     564.86448     -1401.86       -836.99548      10.655788      431.67404    
     61200   0.77383862     579.2182      -1476.2166     -896.99842      10.508277      430.23023    
     61300   0.7206698      539.42135     -1262.9464     -723.52503      11.267498      426.64096    
     61400   0.75097814     562.10714     -1324.8956     -762.78845      11.232239      424.74267    
     61500   0.7833247      586.31854     -1450.7268     -864.40824      10.642489      426.95301    
     61600   0.75337423     563.90061     -1311.7379     -747.83731      10.843344      429.19654    
     61700   0.80444175     602.12465     -1285.6144     -683.48977      10.943025      428.71082    
     61800   0.7992937      598.27134     -1220.7738     -622.50248      11.035293      428.37631    
     61900   0.7829214      586.01667     -1277.5689     -691.55225      10.884419      427.69042    
     62000   0.78682747     588.94036     -1241.9604     -653.02008      11.069863      426.03126    
     62100   0.7385782      552.82578     -1249.0091     -696.18336      11.008226      425.0434     
     62200   0.76270743     570.88651     -1337.4342     -766.54766      10.850779      423.25513    
     62300   0.6938917      519.37794     -1049.6823     -530.30437      11.643107      421.56615    
     62400   0.74805316     559.91779     -1279.6719     -719.75411      10.940062      422.63364    
     62500   0.76365243     571.59385     -1126.4116     -554.81771      11.324217      422.5599     
     62600   0.78840394     590.12035     -1209.6807     -619.56032      11.130826      421.78339    
     62700   0.78687707     588.97748     -1278.5995     -689.62197      10.910112      421.35754    
     62800   0.76862076     575.31264     -1217.7558     -642.44312      11.170654      418.99482    
     62900   0.75616614     565.99036     -1127.4466     -561.4562       11.564732      416.12479    
     63000   0.77566519     580.58539     -1038.3681     -457.78272      11.783938      416.87014    
     63100   0.73611946     550.98542     -1199.713      -648.72763      10.795777      422.70336    
     63200   0.80875634     605.35412     -1206.7621     -601.40801      10.763098      423.02278    
     63300   0.79668284     596.31711     -1021.9545     -425.63739      11.576967      417.51749    
     63400   0.7565968      566.3127      -961.13438     -394.82168      11.9444        413.83493    
     63500   0.74562608     558.10112     -1084.4585     -526.35738      11.38092       416.03378    
     63600   0.72345479     541.50591     -1043.6001     -502.09422      11.27685       418.20863    
     63700   0.76129782     569.83142     -1014.5568     -444.72536      11.356973      417.94637    
     63800   0.80595385     603.25646     -980.2681      -377.01164      11.486315      417.03047    
     63900   0.76133509     569.85932     -871.82555     -301.96624      11.771342      415.82107    
     64000   0.74429447     557.10441     -966.26228     -409.15787      11.532706      414.92159    
     64100   0.77797637     582.31531     -869.70857     -287.39326      11.892623      413.66537    
     64200   0.79580294     595.6585      -1009.1498     -413.49127      11.359728      415.32884    
     64300   0.76767195     574.60246     -863.14887     -288.54642      11.646388      415.28202    
     64400   0.78823679     589.99523     -965.46308     -375.46784      11.43283       413.99349    
     64500   0.72688062     544.07014     -718.43463     -174.36448      12.104916      412.35287    
     64600   0.75722203     566.78069     -796.26666     -229.48596      11.819542      413.17921    
     64700   0.7340496      549.43613     -816.61276     -267.17663      11.564736      414.8532     
     64800   0.8296006      620.95605     -972.34341     -351.38736      11.318149      413.62996    
     64900   0.82810642     619.83765     -721.38071     -101.54305      12.081779      411.50368    
     65000   0.79136338     592.33549     -613.51156     -21.176077      12.088013      413.85767    
     65100   0.83348996     623.86724     -906.63365     -282.76641      11.123161      417.08809    
     65200   0.78304225     586.10712     -631.71204     -45.604911      11.879504      414.47772    
     65300   0.75041018     561.68202     -353.80131      207.88071      12.877563      408.84627    
     65400   0.74490614     557.56224     -450.16997      107.39227      12.619351      408.47676    
     65500   0.80140322     599.85031     -688.53771     -88.687395      11.794668      412.03274    
     65600   0.80593119     603.2395      -705.15183     -101.91233      11.653469      412.89485    
     65700   0.75101075     562.13155     -588.55823     -26.426679      11.946628      411.2137     
     65800   0.76899897     575.59573     -454.50081      121.09493      12.489928      408.06257    
     65900   0.76836874     575.124       -468.70803      106.41597      12.458753      407.31943    
     66000   0.73415098     549.51201     -542.59772      6.9142875      12.115966      408.32781    
     66100   0.76173287     570.15706     -636.67683     -66.519772      11.831134      408.94067    
     66200   0.78302411     586.09354     -398.26437      187.82918      12.454308      407.96369    
     66300   0.76670155     573.87611     -493.26299      80.613127      12.103777      408.36246    
     66400   0.76804919     574.88482     -480.085        94.799822      12.093885      408.46445    
     66500   0.74701748     559.14258     -418.27837      140.86421      12.338906      406.01326    
     66600   0.77985079     583.71832     -419.90794      163.81038      12.513756      403.63665    
     66700   0.74455128     557.29663     -199.48084      357.81579      12.894548      404.71237    
     66800   0.73034074     546.66005     -517.71754      28.942501      11.759601      408.87787    
     66900   0.74302006     556.15052     -500.24008      55.910436      11.892655      407.27099    
     67000   0.7245241      542.30629     -99.901821      442.40447      13.254775      400.99301    
     67100   0.75038665     561.6644      -246.32229      315.34211      12.814234      401.74485    
     67200   0.68472207     512.51447     -428.58695      83.927523      11.891635      406.56746    
     67300   0.7736265      579.05943     -366.65387      212.40556      12.253955      404.51564    
     67400   0.80935741     605.80403     -222.52294      383.28109      12.912351      399.95381    
     67500   0.76955541     576.01223     -275.82444      300.18779      12.666108      400.83567    
     67600   0.76386798     571.75518     -434.66921      137.08597      12.012928      403.77283    
     67700   0.74957981     561.06049     -176.27632      384.78417      12.62596       402.69289    
     67800   0.7684733      575.20227     -224.11745      351.08482      12.719742      399.5304     
     67900   0.77453982     579.74305     -179.05536      400.6877       12.847689      398.71709    
     68000   0.77146084     577.43844     -237.27564      340.16281      12.53611       400.80681    
     68100   0.77299841     578.58931     -141.84678      436.74252      12.55431       402.86335    
     68200   0.84919344     635.62129     -120.77548      514.84582      12.715916      402.24377    
     68300   0.73814105     552.49858     -53.490638      499.00794      12.813733      400.27989    
     68400   0.77125021     577.28078     -122.26322      455.01757      12.85939       397.49228    
     68500   0.76742601     574.41837      148.14411      722.56248      13.396101      398.00322    
     68600   0.77989826     583.75385     -100.98207      482.77178      12.392667      403.56799    
     68700   0.77158765     577.53336     -293.36143      284.17193      11.837537      404.36756    
     68800   0.77987989     583.74009      280.38306      864.12315      13.684259      396.44276    
     68900   0.7248664      542.5625       328.89242      871.45492      13.834199      394.45087    
     69000   0.70333725     526.44793      56.775292      583.22323      12.72385       400.45197    
     69100   0.77463734     579.81605     -186.09697      393.71907      12.031164      402.80458    
     69200   0.79540127     595.35785      73.079586      668.43744      12.904347      398.56782    
     69300   0.78298333     586.06302      307.64353      893.70655      13.67017       394.81248    
     69400   0.79235063     593.07445      43.159483      636.23393      12.772037      398.27938    
     69500   0.72409048     541.98172     -41.306986      500.67474      12.220061      401.7221     
     69600   0.79645234     596.14458      178.26478      774.40935      13.112607      396.89983    
     69700   0.74462465     557.35155      358.14436      915.49591      13.72243       392.50709    
     69800   0.80556139     602.9627       114.17596      717.13866      13.085653      394.30905    
     69900   0.76340264     571.40687     -113.58469      457.82218      12.202399      398.27672    
     70000   0.76967459     576.10143      309.69312      885.79455      13.249194      395.61002    
     70100   0.83205177     622.79075      237.81761      860.60837      13.356757      393.04064    
     70200   0.80252774     600.69201      179.20474      779.89675      13.072258      393.97076    
     70300   0.76894253     575.55349      195.61891      771.17239      12.867909      396.28362    
     70400   0.78387546     586.73078      178.71745      765.44823      12.864059      395.56493    
     70500   0.74667859     558.88892      402.84692      961.73585      13.474603      392.48824    
     70600   0.7917096      592.59464      434.74108      1027.3357      13.663325      391.27533    
     70700   0.81071906     606.82321      286.35361      893.17682      13.003849      395.28499    
     70800   0.7502621      561.57118      246.46711      808.03829      12.621045      398.10792    
     70900   0.73877372     552.97213      494.51897      1047.4911      13.401215      393.62742    
     71000   0.75378466     564.20782      781.69674      1345.9046      14.407891      388.21615    
     71100   0.76151059     569.99068      596.52658      1166.5173      13.809153      390.71644    
     71200   0.76816197     574.96923      193.71153      768.68076      12.446889      397.22314    
     71300   0.78955177     590.9795       104.66636      695.64586      12.282164      396.57887    
     71400   0.83413385     624.34919      646.48555      1270.8347      13.949912      389.31504    
     71500   0.83418607     624.38828      823.23798      1447.6263      14.373872      388.09368    
     71600   0.804228       601.96466      394.99108      996.95574      12.903616      395.19421    
     71700   0.78723155     589.24281      364.04225      953.28507      12.620927      397.27452    
     71800   0.81856371     612.69494      597.05603      1209.751       13.58755       390.58805    
     71900   0.81350072     608.90529      841.13446      1450.0397      14.318516      387.07418    
     72000   0.78407223     586.87807      485.61004      1072.4881      13.129123      391.94915    
     72100   0.7235508      541.57777      301.1689       842.74667      12.55946       393.01692    
     72200   0.76529192     572.821        783.63729      1356.4583      14.049264      386.39583    
     72300   0.75502219     565.13411      1024.6006      1589.7347      14.624179      384.76065    
     72400   0.70865218     530.42616      678.1695       1208.5957      13.373826      390.64369    
     72500   0.73538183     550.4333       514.73103      1065.1643      12.914215      392.2834     
     72600   0.85048044     636.58461      724.55353      1361.1381      13.867003      386.77959    
     72700   0.81847622     612.62945      835.71551      1448.345       14.052169      386.14586    
     72800   0.76216871     570.48328      647.41593      1217.8992      13.271776      389.87898    
     72900   0.79623621     595.98281      595.87394      1191.8567      13.088247      390.96382    
     73000   0.73632286     551.13766      819.26082      1370.3985      13.653148      387.95582    
     73100   0.77031565     576.58126      1023.4737      1600.055       14.349571      384.34556    
     73200   0.73627638     551.10287      851.02552      1402.1284      13.804988      385.75366    
     73300   0.77386414     579.23731      616.45829      1195.6956      13.258286      387.26039    
     73400   0.74104138     554.66947      1070.8676      1625.5371      14.11691       386.73237    
     73500   0.79142035     592.37813      968.62925      1561.0074      13.840346      387.92403    
     73600   0.77856193     582.7536       719.13431      1301.8879      13.274642      388.12148    
     73700   0.74464658     557.36797      959.47654      1516.8445      13.974567      383.89533    
     73800   0.77577854     580.67024      1024.5651      1605.2354      14.317166      381.01707    
     73900   0.72293012     541.11319      980.10107      1521.2143      13.941255      383.67037    
     74000   0.75730413     566.84214      899.38459      1466.2267      13.661337      385.41819    
     74100   0.79555743     595.47474      991.59384      1587.0686      13.986608      383.62865    
     74200   0.78407565     586.88062      1115.9545      1702.8351      14.349518      381.40821    
     74300   0.75549038     565.48455      1185.9771      1751.4617      14.376945      382.1069     
     74400   0.75472632     564.91265      768.8972       1333.8098      13.353363      384.40109    
     74500   0.72527475     542.86815      939.36499      1482.2331      13.708991      382.76061    
     74600   0.74430704     557.11382      1244.3024      1801.4162      14.594494      379.00371    
     74700   0.7329412      548.60649      1186.6615      1735.2679      14.282806      380.93127    
     74800   0.71014183     531.54116      985.37039      1516.9116      13.48329       385.22013    
     74900   0.76279463     570.95178      1271.2743      1842.226       14.099716      384.69378    
     75000   0.74099633     554.63575      1165.7995      1720.4352      14.060387      382.06066    
     75100   0.74980945     561.23237      1089.945       1651.1773      13.959538      380.96688    
     75200   0.81097524     607.01497      1232.0687      1839.0836      14.153856      382.39835    
     75300   0.75701565     566.62621      1166.4796      1733.1058      13.724778      385.20841    
     75400   0.80096962     599.52576      898.0985       1497.6243      13.334721      384.09589    
     75500   0.81215869     607.90078      1298.3761      1906.2769      14.447714      379.12797    
     75600   0.76560138     573.05263      1455.0771      2028.1297      14.653113      379.12922    
     75700   0.75405455     564.40983      1134.6506      1699.0604      13.674742      383.04246    
     75800   0.76543602     572.92886      1257.1759      1830.1048      13.891824      383.15282    
     75900   0.7525825      563.308        1501.2329      2064.5409      14.507929      380.07095    
     76000   0.74873976     560.43171      1454.4545      2014.8862      14.501561      378.51172    
     76100   0.79342203     593.87639      1490.813       2084.6893      14.456816      380.4849     
     76200   0.7665693      573.77712      1454.055       2027.8321      14.011658      384.20113    
     76300   0.83848763     627.60799      1200.0559      1827.6639      13.672086      383.25699    
     76400   0.85930937     643.19307      1491.765       2134.958       14.578221      378.66014    
     76500   0.75534051     565.37237      1777.3623      2342.7346      14.994017      377.68465    
     76600   0.77973054     583.62831      1571.5824      2155.2107      14.330685      381.01873    
     76700   0.81190196     607.70861      1245.7942      1853.5028      13.6552        382.33551    
     76800   0.78469848     587.34681      1593.6263      2180.9731      14.587075      377.66059    
     76900   0.80023898     598.97888      1724.712       2323.6909      15.037293      374.81957    
     77000   0.75978036     568.6956       1617.0546      2185.7502      14.478191      378.02137    
     77100   0.75925381     568.30148      1549.955       2118.2564      14.14099       380.37555    
     77200   0.75180903     562.72906      1518.2338      2080.9628      14.224773      378.21775    
     77300   0.82089569     614.44042      1627.7258      2242.1663      14.741586      374.88486    
     77400   0.78522343     587.73974      1676.0598      2263.7995      14.709089      375.50553    
     77500   0.78234965     585.58871      1379.1486      1964.7373      13.904718      378.2255     
     77600   0.80768162     604.54969      1722.2319      2326.7816      14.516108      378.48804    
     77700   0.75216836     562.99802      1764.9632      2327.9612      14.515014      378.07662    
     77800   0.80490886     602.47428      1756.0334      2358.5077      14.619028      376.9189     
     77900   0.78693902     589.02385      1833.826       2422.8499      14.725493      376.42059    
     78000   0.76637032     573.62818      1813.76        2387.3882      14.575723      377.15327    
     78100   0.74508538     557.69641      1559.9845      2117.6809      13.999922      377.78079    
     78200   0.77109059     577.1613       1859.53        2436.6913      14.870513      373.67049    
     78300   0.77312307     578.68262      2065.7401      2644.4227      15.350237      371.894      
     78400   0.76310372     571.18314      1723.0967      2294.2798      14.286441      377.00159    
     78500   0.74025526     554.08107      1634.7441      2188.8251      13.88872       379.38461    
     78600   0.78217327     585.45669      1915.1779      2500.6346      14.818667      374.21405    
     78700   0.76485465     572.49371      2224.3785      2796.8722      15.641253      370.20033    
     78800   0.7039706      526.92199      1982.0731      2508.9951      14.810768      373.37476    
     78900   0.76781962     574.71298      1754.5209      2329.2339      14.202295      376.99104    
     79000   0.74112552     554.73246      1937.6336      2492.3661      14.539455      375.80453    
     79100   0.73797959     552.37772      2141.6756      2694.0533      15.123467      372.04383    
     79200   0.78748734     589.43427      2256.3503      2845.7846      15.425811      371.80365    
     79300   0.79410746     594.38943      1594.9109      2189.3004      13.857156      376.46711    
     79400   0.79077287     591.89349      1820.7851      2412.6786      14.161424      377.04604    
     79500   0.74321609     556.29724      2032.0247      2588.322       14.725804      373.30699    
     79600   0.81868075     612.78254      2457.0149      3069.7974      15.722965      370.91004    
     79700   0.79513219     595.15644      1986.3631      2581.5196      14.527412      374.80376    
     79800   0.75472957     564.91508      1782.7568      2347.6719      13.889805      377.49149    
     79900   0.77917152     583.20988      2359.5164      2942.7262      15.321837      372.05382    
     80000   0.77485022     579.97539      2433.538       3013.5134      15.653067      368.99482    
     80100   0.78381686     586.68692      2094.47        2681.157       14.758104      372.51908    
     80200   0.78554211     587.97827      1936.6876      2524.6659      14.216256      375.39944    
     80300   0.798174       597.43324      2202.3735      2799.8067      14.917628      372.40662    
     80400   0.81458299     609.71537      2598.0905      3207.8059      15.778966      369.57163    
     80500   0.74226699     555.58684      2114.7437      2670.3306      14.633553      371.9957     
     80600   0.79015393     591.43022      2214.8071      2806.2373      14.747467      373.12608    
     80700   0.71093497     532.13483      2457.4665      2989.6014      15.193663      371.02613    
     80800   0.80851812     605.17582      2375.4664      2980.6422      15.33658       368.65335    
     80900   0.80793421     604.73875      2516.6639      3121.4027      15.399526      370.55058    
     81000   0.79141661     592.37533      2267.7546      2860.13        14.611148      374.49065    
     81100   0.79158767     592.50337      2381.1301      2973.6334      14.862174      373.05497    
     81200   0.79012285     591.40695      2406.1917      2997.5987      15.234863      368.56758    
     81300   0.81471093     609.81113      2635.6961      3245.5072      15.730456      367.47869    
     81400   0.74436499     557.15719      2293.7187      2850.8759      14.747524      371.03099    
     81500   0.79586307     595.70351      2446.8109      3042.5144      14.952318      371.75614    
     81600   0.7865237      588.71299      2515.8905      3104.6035      15.099735      370.83253    
     81700   0.82932127     620.74697      2392.4039      3013.1509      14.991166      369.95144    
     81800   0.7999875      598.79064      2515.4373      3114.2279      15.078933      370.83028    
     81900   0.76739133     574.39241      2481.4986      3055.891       14.877807      371.68392    
     82000   0.73542227     550.46357      2698.2899      3248.7535      15.289804      370.09069    
     82100   0.77716512     581.70809      2840.728       3422.4361      15.722147      367.93915    
     82200   0.76837667     575.12994      2782.5919      3357.7219      15.523295      368.5544     
     82300   0.78849788     590.19067      2855.6223      3445.813       15.487865      370.38572    
     82400   0.76945371     575.9361       2412.566       2988.5021      14.682141      370.67092    
     82500   0.79137224     592.34213      2669.6898      3262.0319      15.366443      367.14168    
     82600   0.80002433     598.81821      2792.0707      3390.8889      15.707586      365.15228    
     82700   0.738601       552.84285      2797.7403      3350.5831      15.497149      366.5301     
     82800   0.81186532     607.68119      2708.1466      3315.8278      15.318753      367.88461    
     82900   0.7966516      596.29372      2483.271       3079.5647      14.852694      368.50665    
     83000   0.82837881     620.04154      2779.3483      3399.3898      15.434611      367.24502    
     83100   0.81047742     606.64235      2840.3832      3447.0255      15.492607      367.02389    
     83200   0.7430034      556.13805      2637.8809      3194.019       14.974896      368.01536    
     83300   0.71729008     536.89162      2686.1759      3223.0676      15.078648      366.58067    
     83400   0.79323482     593.73626      2639.0792      3232.8154      15.351662      363.29369    
     83500   0.74995616     561.34218      2936.7182      3498.0604      15.764463      363.0198     
     83600   0.73519001     550.28972      3026.8935      3577.1833      15.617743      366.03127    
     83700   0.7670053      574.10347      2492.308       3066.4115      14.573094      368.44601    
     83800   0.80429008     602.01112      2945.0537      3547.0648      15.508782      366.15537    
     83900   0.78521974     587.73697      3162.9321      3750.6691      15.948381      364.34148    
     84000   0.73070537     546.93297      3006.6279      3553.5609      15.473968      365.94254    
     84100   0.77516055     580.20767      3049.7548      3629.9625      15.477936      367.10251    
     84200   0.81621343     610.93575      3040.566       3651.5018      15.568467      366.07377    
     84300   0.74232051     555.6269       3251.0385      3806.6654      15.865477      364.77552    
     84400   0.71839261     537.71687      3127.5888      3665.3056      15.597104      364.83142    
     84500   0.76387407     571.75974      3163.8469      3735.6067      15.734803      364.21479    
     84600   0.75595032     565.82882      3052.8495      3618.6783      15.538844      363.98188    
     84700   0.71082565     532.053        3401.7123      3933.7653      16.089162      362.80292    
     84800   0.74551394     558.01719      3396.8652      3954.8824      16.092948      362.97373    
     84900   0.76936591     575.87038      3001.2452      3577.1156      15.27928       365.29397    
     85000   0.73593866     550.85008      3287.2437      3838.0938      15.723204      364.43315    
     85100   0.75546771     565.46758      3308.8519      3874.3195      15.893577      362.77291    
     85200   0.7834008      586.3755       3187.8509      3774.2264      15.782801      361.78284    
     85300   0.79424878     594.49521      3421.8689      4016.3641      16.083738      362.40982    
     85400   0.76830465     575.07603      3116.962       3692.038       15.363492      364.4689     
     85500   0.82856283     620.17928      3459.1083      4079.2875      16.055484      363.27672    
     85600   0.77736789     581.85987      3407.5156      3989.3755      15.948427      362.48535    
     85700   0.76405296     571.89364      3189.816       3761.7096      15.515359      362.84005    
     85800   0.77519504     580.23349      3426.2716      4006.5051      15.980693      361.75618    
     85900   0.76989154     576.26382      3235.8472      3812.111       15.67066       361.10066    
     86000   0.76305365     571.14565      3184.2832      3755.4289      15.564215      361.45285    
     86100   0.74704546     559.16353      3439.9631      3999.1266      15.843742      361.86351    
     86200   0.7689317      575.54538      3471.5126      4047.058       15.915548      361.68049    
     86300   0.74980068     561.22581      3414.9334      3976.1592      15.765056      361.68203    
     86400   0.83272183     623.29229      3340.3311      3963.6234      15.735436      361.94221    
     86500   0.79705813     596.59801      3493.156       4089.754       15.722965      364.01741    
     86600   0.83145931     622.34729      3228.4779      3850.8252      15.239925      364.9749     
     86700   0.76707769     574.15765      3563.115       4137.2726      15.903501      361.64924    
     86800   0.76694162     574.0558       3740.1018      4314.1576      16.456566      357.92638    
     86900   0.72804238     544.93972      3625.0678      4170.0075      16.220118      357.62123    
     87000   0.74372134     556.67542      3722.5834      4279.2588      16.298853      358.28278    
     87100   0.79610572     595.88513      3458.2596      4054.1448      15.7656        360.51526    
     87200   0.80630293     603.51775      3482.9012      4086.419       15.639728      362.27592    
     87300   0.83217822     622.8854       3731.2639      4354.1493      16.077533      361.52806    
     87400   0.81638195     611.06189      3378.1708      3989.2327      15.528779      361.04278    
     87500   0.80470822     602.3241       3821.0032      4423.3273      16.358411      358.58255    
     87600   0.7456617      558.12779      3820.9895      4379.1172      16.252378      358.48925    
     87700   0.73020662     546.55966      3579.7107      4126.2704      15.692277      360.48653    
     87800   0.81987715     613.67804      3706.8641      4320.5422      15.969879      360.64852    
     87900   0.76612623     573.44548      3694.9615      4268.407       15.860322      360.24264    
     88000   0.74435822     557.15213      3835.7182      4392.8704      16.182717      358.10434    
     88100   0.7607461      569.41846      3935.5632      4504.9817      16.454916      356.78444    
     88200   0.73590326     550.82359      3844.808       4395.6316      16.078654      358.68184    
     88300   0.78958736     591.00614      3621.9332      4212.9394      15.694729      360.00001    
     88400   0.77616888     580.9624       3939.8503      4520.8127      16.232144      358.56574    
     88500   0.7721848      577.98032      3900.0074      4477.9877      16.312006      356.52784    
     88600   0.74115514     554.75462      4082.7974      4637.552       16.520044      356.84801    
     88700   0.7605507      569.2722       3699.6946      4268.9668      15.666136      359.76209    
     88800   0.78792596     589.76258      3792.7229      4382.4855      15.901667      358.97411    
     88900   0.76986917     576.24708      3902.174       4478.421       16.306007      355.15997    
     89000   0.79168245     592.57431      4454.8953      5047.4696      17.244054      353.75459    
     89100   0.74900001     560.6265       3592.3253      4152.9518      15.517865      358.23258    
     89200   0.72460746     542.36869      3748.8841      4291.2528      15.619125      358.94356    
     89300   0.76747697     574.45651      4341.9889      4916.4454      16.920832      354.30145    
     89400   0.80813222     604.88697      4043.1005      4647.9875      16.500682      354.63765    
     89500   0.72915678     545.77385      3764.5671      4310.3409      15.590652      358.87591    
     89600   0.78825795     590.01107      4030.0549      4620.066       16.083765      358.39436    
     89700   0.80386521     601.69311      4183.513       4785.2061      16.54462       355.13351    
     89800   0.7831672      586.20065      3948.8203      4535.021       16.248537      353.93438    
     89900   0.74386166     556.78045      4098.1698      4654.9502      16.224383      355.94818    
     90000   0.75188647     562.78703      3930.7897      4493.5767      15.8241        357.69472    
     90100   0.75848632     567.72701      4330.7765      4898.5035      16.472404      356.60474    
     90200   0.75209638     562.94414      4265.0413      4827.9855      16.432392      355.25012    
     90300   0.73746869     551.99532      4174.2044      4726.1998      16.273948      355.1116     
     90400   0.76104339     569.64097      4221.6062      4791.2471      16.285191      355.86027    
     90500   0.74340369     556.43766      4079.8641      4636.3017      16.030521      355.66621    
     90600   0.78570924     588.10336      4171.8511      4759.9545      16.40158       353.15605    
     90700   0.79969663     598.57293      4431.8723      5030.4453      16.773406      353.25363    
     90800   0.74932576     560.87033      4110.5522      4671.4226      15.980317      355.94301    
     90900   0.75427167     564.57235      4138.4367      4703.009       16.0251        355.84553    
     91000   0.77040834     576.65064      4554.0739      5130.7246      16.801656      353.59667    
     91100   0.7230351      541.19177      4461.0424      5002.2342      16.553922      353.92115    
     91200   0.74585937     558.27574      4025.2789      4583.5546      15.793148      355.6257     
     91300   0.80243644     600.62368      4660.1156      5260.7393      16.901629      353.73087    
     91400   0.77505912     580.13175      4537.2811      5117.4129      16.696494      353.23342    
     91500   0.77380411     579.19238      4468.21        5047.4023      16.53509       353.76606    
     91600   0.75081863     561.98774      4084.255       4646.2427      15.874487      354.49548    
     91700   0.78967388     591.0709       4417.8888      5008.9597      16.478884      352.98884    
     91800   0.81241809     608.09494      4483.3339      5091.4288      16.571353      353.0591     
     91900   0.76201662     570.36944      4333.0037      4903.3732      16.208307      353.8201     
     92000   0.78961897     591.0298       4205.6453      4796.6751      16.155581      352.5797     
     92100   0.81060757     606.73977      4592.161       5198.9008      16.801175      351.5342     
     92200   0.7554495      565.45395      4671.2756      5236.7296      16.547146      354.46601    
     92300   0.74802965     559.9002       4370.8849      4930.7851      15.971924      355.80023    
     92400   0.7796248      583.54916      4764.1587      5347.7079      16.775784      352.87269    
     92500   0.82300203     616.01702      5162.7708      5778.7878      17.483703      351.55708    
     92600   0.74295199     556.09956      4598.3606      5154.4602      16.201585      355.80713    
     92700   0.7225439      540.82411      4378.6822      4919.5063      15.832653      355.97932    
     92800   0.81440029     609.57862      4861.4576      5471.0362      17.157155      349.64506    
     92900   0.77796388     582.30596      5183.2153      5765.5212      17.570195      348.86473    
     93000   0.76964033     576.07579      4199.1622      4775.238       15.689365      354.50427    
     93100   0.81758259     611.96057      4532.6136      5144.5742      16.201445      354.40122    
     93200   0.76056896     569.28586      4947.0339      5516.3198      16.908074      351.40479    
     93300   0.78707129     589.12286      5291.8183      5880.9411      17.396988      351.59754    
     93400   0.81236421     608.05461      4505.8087      5113.8633      16.076134      354.50422    
     93500   0.80982456     606.15368      4694.7687      5300.9224      16.412147      353.07457    
     93600   0.81471995     609.81788      5021.7859      5631.6038      17.145489      349.58374    
     93700   0.81224599     607.96612      5001.2149      5609.1811      17.073712      349.8372     
     93800   0.77564214     580.56814      4264.6959      4845.264       15.758333      352.39884    
     93900   0.79835219     597.56661      4921.4426      5519.0092      16.853139      350.32484    
     94000   0.73150189     547.52917      5037.0186      5584.5477      16.971028      349.35381    
     94100   0.7631313      571.20378      4812.0105      5383.2143      16.601316      350.20396    
     94200   0.74293316     556.08547      4951.7379      5507.8234      16.710355      350.34046    
     94300   0.78178086     585.16298      5292.4809      5877.6439      17.25086       349.83604    
     94400   0.75149234     562.49201      4904.995       5467.487       16.508031      351.6515     
     94500   0.80810679     604.86793      4799.964       5404.8319      16.385382      351.92768    
     94600   0.78057372     584.25943      5135.6259      5719.8854      17.013794      349.23042    
     94700   0.78834125     590.07343      5231.2331      5821.3065      17.295638      347.32714    
     94800   0.77761627     582.04578      5087.7684      5669.8142      16.902293      349.2645     
     94900   0.85723043     641.63698      4712.701       5354.338       16.232252      351.92876    
     95000   0.75380404     564.22232      5094.3491      5658.5714      16.591653      351.94817    
     95100   0.7511319      562.22223      5393.1132      5955.3354      17.230903      348.67239    
     95200   0.79112027     592.15352      5518.6876      6110.8411      17.652469      346.16672    
     95300   0.72065695     539.41172      5279.8906      5819.3024      16.97513       348.8748     
     95400   0.73197247     547.88139      4751.3042      5299.1856      16.066777      351.16525    
     95500   0.81100129     607.03446      5392.1778      5999.2122      17.244928      348.30863    
     95600   0.77864168     582.8133       5506.8205      6089.6338      17.390846      347.58228    
     95700   0.76373125     571.65284      5393.553       5965.2058      16.987456      349.91394    
     95800   0.71263318     533.40593      4993.8093      5527.2152      16.345152      350.09093    
     95900   0.84525093     632.67032      5301.8771      5934.5474      17.306328      345.50639    
     96000   0.79164084     592.54317      5362.0915      5954.6347      17.276964      345.62946    
     96100   0.74371787     556.67282      4986.6154      5543.2882      16.266795      350.5328     
     96200   0.77121184     577.25206      4921.0664      5498.3185      16.204756      350.42796    
     96300   0.84277574     630.81764      5386.0159      6016.8335      17.295725      345.76786    
     96400   0.78005721     583.87282      5650.9795      6234.8523      17.59767       345.2286     
     96500   0.71737346     536.95403      5077.0677      5614.0218      16.423265      348.44575    
     96600   0.74736654     559.40385      5490.0378      6049.4416      17.031124      347.95522    
     96700   0.79842416     597.62049      5726.8433      6324.4638      17.55364       346.18417    
     96800   0.77929402     583.30157      5398.9501      5982.2516      16.918539      347.7812     
     96900   0.72751274     544.54329      5386.6148      5931.1581      16.645032      349.7983     
     97000   0.81296711     608.50588      5173.5451      5782.051       16.656917      347.32393    
     97100   0.76706124     574.14534      5943.3832      6517.5285      17.914533      343.6948     
     97200   0.79041877     591.62845      5372.5631      5964.1915      16.980082      345.83521    
     97300   0.76521089     572.76035      5183.9917      5756.7521      16.452347      348.2442     
     97400   0.77328564     578.8043       5505.3614      6084.1657      16.950708      347.12578    
     97500   0.80267779     600.80432      5493.3818      6094.1861      17.083099      345.8116     
     97600   0.81295196     608.49454      5483.8345      6092.329       16.987173      346.5747     
     97700   0.76459412     572.2987       5416.1333      5988.432       16.737665      347.26022    
     97800   0.80325924     601.23954      5726.2938      6327.5333      17.308417      345.67091    
     97900   0.75088265     562.03566      5816.636       6378.6716      17.317715      345.89744    
     98000   0.75048858     561.74071      5530.2871      6092.0278      16.810503      347.05294    
     98100   0.75969086     568.62861      5911.2108      6479.8394      17.389515      346.0057     
     98200   0.81593736     610.72911      5685.1396      6295.8687      17.19702       345.3471     
     98300   0.76833004     575.09504      5786.0257      6361.1208      17.194644      346.08192    
     98400   0.75573666     565.66889      5225.1866      5790.8555      16.31981       347.23603    
     98500   0.75553218     565.51584      5962.2398      6527.7556      17.594556      343.15197    
     98600   0.73596886     550.87269      6517.0927      7067.9654      18.502588      340.5538     
     98700   0.74577973     558.21613      5582.3474      6140.5636      16.863762      345.29413    
     98800   0.74526494     557.8308       5621.4195      6179.2503      16.618341      348.50734    
     98900   0.80015429     598.91548      5603.711       6202.6265      16.946239      344.72074    
     99000   0.74331424     556.37071      6323.9522      6880.3229      18.192913      340.10397    
     99100   0.728164       545.03076      5888.3939      6433.4246      17.48253       341.37249    
     99200   0.77487794     579.99614      5855.8065      6435.8026      17.167491      345.04952    
     99300   0.73563272     550.62109      5497.9966      6048.6177      16.459352      346.87184    
     99400   0.76518205     572.73877      5834.4451      6407.1838      17.226613      342.95944    
     99500   0.76921694     575.75888      6639.4969      7215.2557      18.522648      340.0729     
     99600   0.77260038     578.29138      5827.7966      6406.0879      17.1028        344.0193     
     99700   0.75561314     565.57644      5553.1499      6118.7263      16.452252      346.90013    
     99800   0.77581702     580.69904      6264.4476      6845.1466      17.64287       343.79642    
     99900   0.7461523      558.49499      6295.8431      6854.3381      17.879244      340.78808    
    100000   0.82508142     617.57344      5999.5303      6617.1038      17.464058      341.89787    
Loop time of 20.5695 on 12 procs for 50000 steps with 500 atoms

Performance: 840077.426 tau/day, 2430.780 timesteps/s
99.7% CPU use with 12 MPI tasks x 1 OpenMP threads

MPI task timing breakdown:
Section |  min time  |  avg time  |  max time  |%varavg| %total
---------------------------------------------------------------
Pair    | 9.5197     | 9.9041     | 10.258     |   7.5 | 48.15
Neigh   | 0.25883    | 0.26225    | 0.26472    |   0.3 |  1.27
Comm    | 4.0843     | 4.4048     | 4.7564     |  10.5 | 21.41
Output  | 0.0098187  | 0.010081   | 0.01231    |   0.7 |  0.05
Modify  | 2.3881     | 2.5491     | 2.6838     |   5.5 | 12.39
Other   |            | 3.439      |            |       | 16.72

Nlocal:        41.6667 ave          45 max          38 min
Histogram: 1 3 0 0 1 2 0 2 1 2
Nghost:        2538.83 ave        2562 max        2511 min
Histogram: 2 0 0 1 3 1 2 0 1 2
Neighs:        11628.1 ave       12885 max       10250 min
Histogram: 2 1 0 2 1 0 1 1 3 1

Total # of neighbors = 139537
Ave neighs/atom = 279.074
Neighbor list builds = 834
Dangerous builds = 0

write_data        ${phase}/backward.lammps nocoeff
write_data        liquid/backward.lammps nocoeff
System init for write_data ...
Generated 0 of 0 mixed pair_coeff terms from geometric mixing rule

Total wall time: 0:00:32
