LAMMPS data file via write_data, version 16 Mar 2018, timestep = 2000000

6664 atoms
1 atom types

-2.5746564094711033e-01 4.7624187169896771e+01 xlo xhi
-2.4480187158591349e-01 4.7610585343545921e+01 ylo yhi
9.3805478624620520e-02 4.8330274357837553e+01 zlo zhi

Atoms # atomic

5 1 1.2771313941076421e+00 1.5056356471110877e+00 6.3439849056475417e-01 0 0 0
453 1 1.4916306944038942e+01 8.4961182755455873e+00 1.1948917505678821e+01 0 0 0
7 1 4.6713610385024689e+00 1.4005247535576362e+00 2.0613440034921209e+00 0 0 0
13 1 8.3810304256766432e+00 1.3922010673457805e+00 7.7507349961398120e-01 0 0 0
3655 1 2.3680369157421012e+01 6.5022122113511092e+00 1.0143179733014643e+01 0 0 0
15 1 1.1775591661487447e+01 1.5842165957002869e+00 2.0413235243692820e+00 0 0 0
3613 1 2.3648888625453282e+01 2.0326511993907342e+01 7.3268592432281077e+00 0 0 0
21 1 1.4975826999009506e+01 1.2677050376980927e+00 4.5496428242817205e-01 0 0 0
23 1 1.8828338101503821e+01 1.2765378626078079e+00 2.2139854739254763e+00 0 0 0
414 1 -1.3866563043748387e-01 2.0390041132687511e+01 1.1608036252714335e+01 0 0 0
27 1 2.1830761149527149e+01 1.3186411804345177e+00 8.2407118820840697e-01 0 0 0
3530 1 2.3311887217293435e+01 3.2022994058723482e+00 5.6701105835162311e+00 0 0 0
10 1 6.4332895955707636e+00 3.0323395671649633e+00 1.4947941825588618e+00 0 0 0
432 1 1.5073181239360059e+01 1.6887452982728961e+00 1.2048069131194040e+01 0 0 0
18 1 1.3640152682688324e+01 3.0921447733772136e+00 1.6329731020452400e+00 0 0 0
3487 1 2.3675713826136210e+01 1.3378575662799054e+01 4.6050195810425842e+00 0 0 0
26 1 2.0331279806639859e+01 3.0748238546766822e+00 1.6174821150883618e+00 0 0 0
6 1 1.2914127247395564e+00 5.1882344513048473e+00 2.5815455029037375e+00 0 0 0
31 1 3.0817268827077275e+00 6.2889494409590485e+00 1.5443873618639152e+00 0 0 0
8 1 4.8949212812397800e+00 4.8355462414606887e+00 5.8459725833363918e-01 0 0 0
14 1 8.3148067433448958e+00 4.6082493561315472e+00 2.0257666991143868e+00 0 0 0
39 1 1.0091642047130861e+01 6.3809132246852078e+00 1.6005877098329129e+00 0 0 0
16 1 1.1901192568641262e+01 4.5944368713285817e+00 6.6594082945372635e-01 0 0 0
3557 1 2.3453072937888589e+01 6.7611517623325890e+00 6.9824516094662723e+00 0 0 0
22 1 1.5142122205543464e+01 5.0652556285342731e+00 2.5811430663152439e+00 0 0 0
24 1 1.8577965458248304e+01 4.8466138543810384e+00 9.2313868955900569e-01 0 0 0
47 1 1.6826473687366132e+01 6.7918339563181895e+00 1.2777602179244920e+00 0 0 0
28 1 2.1731403455345085e+01 5.3581937657006797e+00 2.2040506523786405e+00 0 0 0
33 1 1.4652122240996797e+00 8.3110001268016500e+00 9.3483623352793577e-01 0 0 0
35 1 4.5329974041134982e+00 7.9728499393190084e+00 2.2585685999700194e+00 0 0 0
41 1 8.4827262241292960e+00 8.6319058876107260e+00 9.9898820589219472e-01 0 0 0
43 1 1.2156756943731168e+01 8.6156506576430054e+00 1.9394902097004840e+00 0 0 0
49 1 1.5104824231600352e+01 8.3387229717431417e+00 7.0316342621823247e-01 0 0 0
51 1 1.8613950857303301e+01 8.4908504886229021e+00 1.7882315345292310e+00 0 0 0
55 1 2.2149230305451308e+01 8.1428493602983156e+00 6.9659610087137747e-01 0 0 0
34 1 1.5947141338269868e+00 1.1678513271594845e+01 2.1693289428784785e+00 0 0 0
38 1 6.3576857033143490e+00 9.7923383174194925e+00 1.4837993534014220e+00 0 0 0
36 1 5.0380934803283814e+00 1.2015715761692384e+01 8.8177032483219764e-01 0 0 0
485 1 8.2130700040156128e+00 2.2067657262095771e+01 1.2081904102273944e+01 0 0 0
46 1 1.4001056536618046e+01 1.0233423669527042e+01 1.5627770486806349e+00 0 0 0
50 1 1.5426435828028978e+01 1.2037719330206595e+01 2.3755889280949751e+00 0 0 0
1765 1 -1.6595403279156198e-01 2.3154900948039330e+01 4.5176178052349565e+00 0 0 0
54 1 2.0482051701809212e+01 1.0046788968137887e+01 1.4771438962553534e+00 0 0 0
56 1 2.2272106067663831e+01 1.1951074524713485e+01 2.3155248453200459e+00 0 0 0
59 1 3.0087490495829363e+00 1.3624791508182884e+01 1.4494805922168250e+00 0 0 0
42 1 8.7622810825673625e+00 1.1653699523887489e+01 2.0732284575933497e+00 0 0 0
44 1 1.1765877443918342e+01 1.1643283308702266e+01 6.7343383476599294e-01 0 0 0
67 1 1.0126467374672201e+01 1.3588972766562730e+01 1.0647078887235317e+00 0 0 0
29 1 5.9692499749215866e-02 6.3068718566250777e+00 2.0074040867643661e-01 0 0 0
52 1 1.8737857297766112e+01 1.1640775492965657e+01 5.3892991553646674e-01 0 0 0
75 1 1.7228764669298904e+01 1.3475399233301770e+01 1.3958423334587544e+00 0 0 0
2 1 -5.9287554429326650e-02 3.5187491762260663e+00 1.3923155395656115e+00 0 0 0
61 1 1.2255697966684256e+00 1.5230150433916686e+01 9.4914147668131310e-01 0 0 0
63 1 4.8340167762024864e+00 1.5056182078292194e+01 2.2920376461716394e+00 0 0 0
69 1 8.1698244629370151e+00 1.5187312463467693e+01 8.6300673573350750e-01 0 0 0
71 1 1.1792854151949854e+01 1.5345342569612084e+01 2.0524171687311847e+00 0 0 0
77 1 1.5272571856469245e+01 1.5148405536794888e+01 8.7514243749693987e-01 0 0 0
79 1 1.8564811772610433e+01 1.5377854541721943e+01 2.1543323322826686e+00 0 0 0
83 1 2.1914000720692680e+01 1.4850873192616753e+01 9.9651948691104530e-01 0 0 0
62 1 1.4663583705618013e+00 1.8828895958264596e+01 2.6285681173432711e+00 0 0 0
3656 1 2.3473280501475237e+01 9.8959300272113015e+00 8.4442157737632471e+00 0 0 0
64 1 5.0230177909438227e+00 1.8637921153763749e+01 5.8922935141217669e-01 0 0 0
66 1 6.6481317864056617e+00 1.6695136449737674e+01 1.3899746685813648e+00 0 0 0
388 1 1.6946731348136339e+01 2.0568975347612245e+01 9.9216011265787820e+00 0 0 0
72 1 1.1249106843385057e+01 1.8273133107720568e+01 7.9405268861286071e-01 0 0 0
74 1 1.3486092389251214e+01 1.6904768603839511e+01 9.9360116705183454e-01 0 0 0
78 1 1.4556892583313013e+01 1.8799474503168398e+01 2.0566805313013936e+00 0 0 0
213 1 1.3424330946326203e+01 8.8329940833414167e-02 5.7763788930675251e+00 0 0 0
80 1 1.8799796201937390e+01 1.8437152795096921e+01 6.9599601739849271e-01 0 0 0
82 1 2.0385678381121117e+01 1.6377507196664617e+01 1.4249598488835946e+00 0 0 0
84 1 2.1419349547090199e+01 1.8845388021153120e+01 2.3550110221583118e+00 0 0 0
205 1 6.4758954308587651e+00 -9.2831056470683293e-02 5.6976303312356222e+00 0 0 0
416 1 1.3225625789811421e+01 1.9971228443097953e+01 1.1177942951536446e+01 0 0 0
86 1 3.1509383599067524e+00 1.9951848451800565e+01 1.3059791339283331e+00 0 0 0
311 1 1.3212264985999735e+01 -2.1501350453041779e-01 8.2631136637589897e+00 0 0 0
90 1 1.0022818642122822e+01 2.0194677181513178e+01 1.5357659432497908e+00 0 0 0
94 1 1.6745720576900695e+01 1.9896904110976099e+01 1.1817514282974624e+00 0 0 0
87 1 1.2883313753503611e+00 2.2102992347284555e+01 9.7568677363554623e-01 0 0 0
88 1 4.8905037513846841e+00 2.1863162867355083e+01 2.1148078065386633e+00 0 0 0
215 1 1.7029345727884515e+01 -1.0068150916984309e-01 7.6567787902228224e+00 0 0 0
91 1 8.5690537824435857e+00 2.1824374857063752e+01 8.2408285429641281e-01 0 0 0
92 1 1.2010639587480485e+01 2.1737922898962839e+01 1.9757604756235561e+00 0 0 0
95 1 1.5095564496824391e+01 2.1954096692759343e+01 7.3996009374335459e-01 0 0 0
96 1 1.8135324693449515e+01 2.1899525346420980e+01 2.1945671411079704e+00 0 0 0
1961 1 -4.4074495350840598e-02 2.3473294540757415e+01 1.0024251943362870e+01 0 0 0
98 1 2.2188810719989497e+01 2.1848097693978552e+01 8.5466727019721245e-01 0 0 0
103 1 1.6974276948039959e+00 1.6925724490784226e+00 3.6245179149514235e+00 0 0 0
490 1 2.2010719614753789e+01 2.2220248024294481e+01 1.2108695300541340e+01 0 0 0
111 1 8.3890216318709570e+00 1.5473597248596282e+00 3.5977227549777071e+00 0 0 0
3488 1 2.3447018392646768e+01 1.6871833071001110e+01 2.8547167485967924e+00 0 0 0
119 1 1.5346529534940741e+01 1.2065240868794267e+00 3.5866579526228910e+00 0 0 0
3334 1 2.3186006232907541e+01 3.1432186779628490e+00 3.1841270557432988e-01 0 0 0
1766 1 3.2948717317944767e+00 2.3413113616669587e+01 3.0323096914293917e+00 0 0 0
125 1 2.2181906389556097e+01 1.5633660898063984e+00 3.5923865666748194e+00 0 0 0
102 1 3.2801867774012945e+00 3.2537990403224177e+00 2.7170729871395025e+00 0 0 0
108 1 6.3818567158242123e+00 3.2026217003049209e+00 4.1811395094886716e+00 0 0 0
110 1 1.0283475078109301e+01 3.2908687540983830e+00 2.9401840261290326e+00 0 0 0
116 1 1.3533530082477846e+01 3.0553478072554028e+00 4.4440719420386943e+00 0 0 0
118 1 1.6886755818348373e+01 2.9023576699818481e+00 2.8668250067132859e+00 0 0 0
124 1 1.9988282337302095e+01 3.3267666760859602e+00 4.3113760244423860e+00 0 0 0
3627 1 2.3605429813132119e+01 -1.7557225080618255e-01 9.7005825232985288e+00 0 0 0
104 1 1.2608752229355551e+00 4.8708229985056306e+00 5.0539698446275532e+00 0 0 0
129 1 3.0512540932138621e+00 6.9320467224027293e+00 4.5876591603246863e+00 0 0 0
106 1 4.8984595824067068e+00 5.0733499863086449e+00 3.7937039661063428e+00 0 0 0
114 1 1.2080561039336729e+01 4.6923072013746294e+00 3.8336080054988368e+00 0 0 0
137 1 9.9026153590734669e+00 6.5670101380073902e+00 4.0901816945717968e+00 0 0 0
143 1 1.3084007100899674e+01 6.7082540316147341e+00 2.7591728013082735e+00 0 0 0
145 1 1.6850058773751243e+01 6.9326177917454945e+00 4.2814310447454638e+00 0 0 0
122 1 1.8403857115797898e+01 5.2218924956725452e+00 3.5093826023114612e+00 0 0 0
151 1 2.0168616728924476e+01 6.8819781001927005e+00 3.2839984938421947e+00 0 0 0
126 1 2.2143445525761564e+01 4.7281289950852923e+00 4.6076164326048161e+00 0 0 0
131 1 1.3237633110368621e+00 8.5448821993943564e+00 3.7910038215841548e+00 0 0 0
135 1 6.5491690748699760e+00 6.5595026714578193e+00 2.6204066534049244e+00 0 0 0
139 1 7.9337869088845601e+00 8.1195843796029425e+00 3.8185375780053685e+00 0 0 0
141 1 1.1760314948969841e+01 8.0954195108705242e+00 4.9943661360498082e+00 0 0 0
147 1 1.4649984107013735e+01 8.3496796158667532e+00 3.9005087524239666e+00 0 0 0
153 1 2.1944062737456768e+01 8.6131298403680194e+00 3.5362006258607628e+00 0 0 0
319 1 2.0360050490917281e+01 3.3443808066659420e-02 8.7423832144665763e+00 0 0 0
130 1 3.1925186813479751e+00 1.0110423124130946e+01 2.9326537604853753e+00 0 0 0
136 1 6.2864267552086286e+00 1.0273088587330276e+01 3.9513326107666633e+00 0 0 0
134 1 4.5250989217363937e+00 1.1957273184841771e+01 3.5568136621937323e+00 0 0 0
138 1 1.0158483524071784e+01 9.3192431231573423e+00 2.7457353647925946e+00 0 0 0
142 1 1.1535256787378474e+01 1.1677541946210626e+01 3.0624802858952647e+00 0 0 0
144 1 1.3263803041508067e+01 1.0417431476537615e+01 4.4726185262835676e+00 0 0 0
146 1 1.6593524448287692e+01 9.7460775783756333e+00 2.7432942026608833e+00 0 0 0
152 1 2.0082284989637294e+01 1.0305947887485761e+01 4.2954038260527820e+00 0 0 0
384 1 1.0058186073856996e+01 1.9960211694184441e+01 1.0031624485074712e+01 0 0 0
1966 1 9.8659079273628087e+00 2.3227998088842742e+01 8.7443890707602314e+00 0 0 0
157 1 3.0484970450841327e+00 1.3789052315314827e+01 4.4621928412201601e+00 0 0 0
163 1 6.9467638321258276e+00 1.3126696105348268e+01 2.6358581612967500e+00 0 0 0
165 1 1.0087195460216874e+01 1.3326181931835979e+01 4.2777757089052360e+00 0 0 0
171 1 1.3226128746937965e+01 1.3534985540112222e+01 2.9096022861310900e+00 0 0 0
150 1 1.8420590926027483e+01 1.1623355835146073e+01 3.3568397312094369e+00 0 0 0
173 1 1.6907536001171032e+01 1.3187539916757922e+01 4.5941003905490616e+00 0 0 0
179 1 2.0236957105068360e+01 1.3281219621109473e+01 2.9107631041269868e+00 0 0 0
3732 1 2.3646632783275692e+01 9.9468633328675757e+00 1.1396546458144169e+01 0 0 0
159 1 1.4231053607934656e+00 1.5207675311903852e+01 3.5740797962427844e+00 0 0 0
167 1 8.3853332023112053e+00 1.4847835871161886e+01 3.6270641474974137e+00 0 0 0
169 1 1.1768210466120477e+01 1.5370218426807190e+01 4.9414637894896520e+00 0 0 0
175 1 1.5563283084033733e+01 1.4885500819200365e+01 3.4770281309995168e+00 0 0 0
181 1 2.2087350275346452e+01 1.4885940729893674e+01 3.7560218504913481e+00 0 0 0
160 1 1.2657747046048180e+00 1.8402940580269899e+01 4.8626403567051018e+00 0 0 0
253 1 -1.5062923107331255e-01 1.3603354914233227e+01 5.8035830092430514e+00 0 0 0
158 1 3.2060035672165204e+00 1.6812757065977035e+01 2.6751977468603219e+00 0 0 0
162 1 5.0371272637308744e+00 1.8464306229739410e+01 3.5917543303158013e+00 0 0 0
164 1 6.6695545236898592e+00 1.6933361799496744e+01 4.3630759538015953e+00 0 0 0
70 1 8.2594664678677638e+00 1.8480111007187759e+01 2.0774514086467439e+00 0 0 0
166 1 9.8002031722808702e+00 1.6714162599077920e+01 2.9426011475068714e+00 0 0 0
170 1 1.1706952286257003e+01 1.8235421952338442e+01 3.5411960588735787e+00 0 0 0
172 1 1.3740033306449535e+01 1.6948496460046048e+01 4.0678600662756050e+00 0 0 0
174 1 1.6664029173706734e+01 1.7220728271831430e+01 2.8186080640663826e+00 0 0 0
178 1 1.8563238190025874e+01 1.8885510088156902e+01 3.4033150046668292e+00 0 0 0
180 1 2.0517488711908101e+01 1.6633152612809081e+01 4.3900056372426048e+00 0 0 0
182 1 2.2177557802556283e+01 1.8718490074614309e+01 4.7449076112941988e+00 0 0 0
184 1 3.4374221735703632e+00 2.0444356009923048e+01 4.5436532146127506e+00 0 0 0
187 1 6.4569306450720534e+00 2.0053359807000763e+01 2.7920592924346295e+00 0 0 0
188 1 1.0268731639185489e+01 2.0249425820243054e+01 4.1698063986133169e+00 0 0 0
191 1 1.3231634041598332e+01 2.0244562292563643e+01 3.2036811964896770e+00 0 0 0
192 1 1.6445922822302649e+01 2.0201284813551037e+01 4.0511476385186977e+00 0 0 0
195 1 2.0233026968275357e+01 2.0774398368703611e+01 3.0543908405836726e+00 0 0 0
185 1 1.4439863929762609e+00 2.1489374433765242e+01 3.3833805764943228e+00 0 0 0
189 1 8.2652198152278018e+00 2.1668609110853083e+01 3.6519748360360080e+00 0 0 0
193 1 1.5109078610626934e+01 2.2031180474307472e+01 3.1976720741442226e+00 0 0 0
196 1 2.2465951489554296e+01 2.2105600369627680e+01 3.9829500971500078e+00 0 0 0
201 1 1.3857638921641127e+00 1.4014792289843778e+00 6.3970707479717026e+00 0 0 0
105 1 4.6685402033719425e+00 1.7247928654282509e+00 5.4470324577409945e+00 0 0 0
209 1 8.1878536674962845e+00 1.3499982973516573e+00 6.5210794108575367e+00 0 0 0
1770 1 1.0013992752081462e+01 2.3552956720676114e+01 2.8206217625497341e+00 0 0 0
113 1 1.1546486848413199e+01 1.7159614669689398e+00 5.1895396513661813e+00 0 0 0
32 1 3.3253711385425633e+00 1.0120625594157950e+01 2.4367155474591112e-01 0 0 0
217 1 1.5520744508047597e+01 1.4202674938488762e+00 6.3094123932438242e+00 0 0 0
121 1 1.8404359056719837e+01 1.6011969084885052e+00 5.0056125130443005e+00 0 0 0
1962 1 3.0962744690600235e+00 2.3574497372454992e+01 8.6792845990223402e+00 0 0 0
223 1 2.1880711442152041e+01 1.4120563884790742e+00 6.3066328788361146e+00 0 0 0
20 1 1.6715093732575752e+01 3.2726903043105429e+00 2.4868476224707278e-01 0 0 0
200 1 3.0803406332621450e+00 3.2257354480697695e+00 5.9739560442279940e+00 0 0 0
206 1 6.7978572406688382e+00 3.2576496975896649e+00 6.9904862566792767e+00 0 0 0
208 1 9.8736533179020540e+00 3.4525325000880613e+00 5.6230705701526791e+00 0 0 0
214 1 1.3610600295116335e+01 3.3244182277602894e+00 7.0874781892141971e+00 0 0 0
216 1 1.6740147872836992e+01 3.3568436765177072e+00 5.6287054066300755e+00 0 0 0
397 1 1.3138880015464846e+01 -2.2910597118393181e-01 1.1562037371699750e+01 0 0 0
60 1 2.8915351928828712e+00 1.7214111108862394e+01 1.9747385190107725e-01 0 0 0
227 1 3.0364577228117229e+00 6.5220052242953015e+00 6.9530001105698300e+00 0 0 0
204 1 4.6448094300124652e+00 4.8702020735988407e+00 6.4912754728893880e+00 0 0 0
233 1 6.4630385486542377e+00 6.4974314653164811e+00 6.0284600312773051e+00 0 0 0
112 1 7.9845404456920654e+00 4.9888919916483552e+00 4.8431821578740992e+00 0 0 0
212 1 1.1436442634185013e+01 5.1717530746605789e+00 6.2704857467103361e+00 0 0 0
120 1 1.5103171082910716e+01 5.0316151932964557e+00 4.9601339788154633e+00 0 0 0
220 1 1.8454124050200324e+01 4.9524588795437010e+00 6.5352649918752963e+00 0 0 0
243 1 1.6807023024168892e+01 6.5574948657161158e+00 7.3946291892977616e+00 0 0 0
249 1 2.0728243526138840e+01 6.3530074712156832e+00 5.6575687869703843e+00 0 0 0
1970 1 1.6953194305198522e+01 2.3547976600860892e+01 8.6707122742124625e+00 0 0 0
229 1 1.0128423636998312e+00 8.4583288219526356e+00 6.4910514556870078e+00 0 0 0
133 1 5.2480898272334473e+00 8.4007191659281144e+00 5.2837006043015746e+00 0 0 0
237 1 8.5595355026550415e+00 8.5378164357615436e+00 6.1951752738461323e+00 0 0 0
241 1 1.3562007794277573e+01 6.7888664400662888e+00 5.8499153065883363e+00 0 0 0
245 1 1.5769821635244345e+01 8.3738159827424798e+00 6.5215069407812187e+00 0 0 0
149 1 1.8589278880326358e+01 8.6248359039390099e+00 4.8560504976002914e+00 0 0 0
251 1 2.1914313499607754e+01 8.4665679020569016e+00 6.1840639245159750e+00 0 0 0
228 1 3.0330365487553177e+00 9.9756069054821666e+00 5.6482921070542433e+00 0 0 0
236 1 9.9811537958987664e+00 1.0237936590437194e+01 5.4502035874720818e+00 0 0 0
242 1 1.3467502297201255e+01 9.6442362856595363e+00 6.9488974809325788e+00 0 0 0
244 1 1.6797849809960727e+01 1.0197609013464696e+01 5.2884332381166868e+00 0 0 0
248 1 1.8589450905472145e+01 1.1679958856103864e+01 6.4190120883132931e+00 0 0 0
250 1 2.0297483151948825e+01 1.0081366416704965e+01 7.4653884472759637e+00 0 0 0
154 1 2.2028053857611120e+01 1.1647871862188403e+01 5.2646293494150047e+00 0 0 0
132 1 1.3172121179629923e+00 1.1622713781789427e+01 5.1264947003837653e+00 0 0 0
450 1 1.1724093948004517e+01 1.1903623151711329e+01 1.1931684566185389e+01 0 0 0
232 1 5.1357956564603393e+00 1.1852141272974171e+01 6.3456475690939236e+00 0 0 0
261 1 6.5038264336306453e+00 1.3721938234161067e+01 5.6858711245619764e+00 0 0 0
140 1 8.1338442989786657e+00 1.1641460139779094e+01 5.0273418917643120e+00 0 0 0
240 1 1.1689369017398244e+01 1.1756365562067758e+01 6.5201559984153308e+00 0 0 0
269 1 1.3267669033834746e+01 1.3516935308902239e+01 5.7280490283032330e+00 0 0 0
148 1 1.5016211850881781e+01 1.1786895346832596e+01 5.2211209420287785e+00 0 0 0
271 1 1.6788223649419081e+01 1.3499090615696284e+01 7.0683554507324100e+00 0 0 0
277 1 2.0363793734394470e+01 1.3553159554680937e+01 5.7422527763697202e+00 0 0 0
257 1 1.5232853378322160e+00 1.5244468528895736e+01 6.6744315686483970e+00 0 0 0
161 1 4.8525326922813843e+00 1.5280975815319154e+01 4.8193947764064902e+00 0 0 0
265 1 8.3977400146476260e+00 1.5328440817707122e+01 6.6837427060979193e+00 0 0 0
273 1 1.5018076537266502e+01 1.5064831545042130e+01 6.4525896432429350e+00 0 0 0
177 1 1.8524353760312923e+01 1.5132333305110413e+01 4.7469927451467600e+00 0 0 0
279 1 2.1857084280982274e+01 1.5278749857010007e+01 6.7658640878476985e+00 0 0 0
474 1 1.5257486047518499e+01 1.5130281537093591e+01 1.2055101456127590e+01 0 0 0
256 1 3.1544578191024959e+00 1.6952382562024322e+01 5.6521319483373711e+00 0 0 0
262 1 6.2839466334028771e+00 1.6568978860234875e+01 7.2483334903160488e+00 0 0 0
168 1 8.3548587393100338e+00 1.8445797306069473e+01 5.0501698642977226e+00 0 0 0
264 1 9.9828191036000948e+00 1.6972936669991334e+01 5.7707487762677765e+00 0 0 0
270 1 1.3387837681352270e+01 1.6856761070243842e+01 7.3111253661243873e+00 0 0 0
268 1 1.1602378904116939e+01 1.8623751697671349e+01 6.2670440709080522e+00 0 0 0
176 1 1.4822682458860516e+01 1.8338610356957886e+01 5.3079646086267882e+00 0 0 0
272 1 1.6789363794117349e+01 1.6745227826645017e+01 5.4538383470325789e+00 0 0 0
276 1 1.8276911708317705e+01 1.8357808640547226e+01 5.9185363413761314e+00 0 0 0
278 1 1.9952160484372119e+01 1.7214854168289499e+01 7.1517544631009526e+00 0 0 0
1679 1 2.0368340149552203e+01 2.3374678028620313e+01 1.8957563505944441e+00 0 0 0
282 1 2.7489887105291788e+00 1.9972617661061918e+01 6.9601073149887283e+00 0 0 0
260 1 4.8238880803750837e+00 1.8466391512841831e+01 6.8340442529290861e+00 0 0 0
285 1 6.5355386432311731e+00 2.0000278957405605e+01 5.8387895215341068e+00 0 0 0
286 1 9.8563469705823135e+00 2.0072686493707572e+01 7.1785599878642996e+00 0 0 0
289 1 1.3415004551675100e+01 2.0193708918339375e+01 5.5038472097730855e+00 0 0 0
290 1 1.7185272330982109e+01 1.9916818330000069e+01 7.3803270630472237e+00 0 0 0
293 1 2.0557156982491719e+01 2.0215924564033376e+01 5.6398908637274703e+00 0 0 0
323 1 4.1358284466941342e-03 6.8364034878666775e+00 8.8171953567399015e+00 0 0 0
283 1 1.0915639953998904e+00 2.2062852909322270e+01 6.6237048095768785e+00 0 0 0
1871 1 1.3962884059072088e+01 2.3379820201066785e+01 6.9770098268333705e+00 0 0 0
186 1 5.1054946346136889e+00 2.2064061702625157e+01 4.9815332752386130e+00 0 0 0
287 1 8.2584595683529738e+00 2.2079976051457855e+01 6.5782537531956899e+00 0 0 0
456 1 1.8565247880901559e+01 1.1888749198223001e+01 1.1673597239543680e+01 0 0 0
190 1 1.1671442799558545e+01 2.2280611849864378e+01 5.4882913278832195e+00 0 0 0
1671 1 6.8055793924624970e+00 2.3390453555877624e+01 1.5130521223841638e+00 0 0 0
291 1 1.5677481999878827e+01 2.1625139696922890e+01 6.1410284049903954e+00 0 0 0
194 1 1.8611042429828341e+01 2.1622104226519241e+01 5.1216131888436180e+00 0 0 0
294 1 2.1860180303313598e+01 2.2038593073591937e+01 6.1736650517696541e+00 0 0 0
299 1 1.1468684390501018e+00 1.5344790160551174e+00 9.6341565842745069e+00 0 0 0
444 1 4.9531222821091418e+00 1.1722243748666147e+01 1.1903857095356301e+01 0 0 0
203 1 4.9916780407455601e+00 1.3536291100418008e+00 8.1454975435811345e+00 0 0 0
307 1 8.3073472751131909e+00 1.7212932904455109e+00 9.4473114714163895e+00 0 0 0
211 1 1.1659548184002125e+01 1.8268753270189326e+00 7.7103580781569265e+00 0 0 0
315 1 1.4647264321395802e+01 1.5028966097942851e+00 9.0338594623836421e+00 0 0 0
219 1 1.8783456984598036e+01 1.6377682174932624e+00 7.7757826815289723e+00 0 0 0
321 1 2.1924103292939783e+01 1.6783178489122674e+00 9.2902617021300440e+00 0 0 0
298 1 3.0134162979484453e+00 2.9747482447148164e+00 8.5848607549647404e+00 0 0 0
306 1 9.9703668740707272e+00 3.1586562878484346e+00 8.3334422619944259e+00 0 0 0
310 1 1.1759900761579770e+01 4.8526432185980246e+00 8.9684302860603200e+00 0 0 0
314 1 1.6896472748994789e+01 3.0748430552141577e+00 8.6750555516016270e+00 0 0 0
222 1 2.0420098900229995e+01 3.3670726356985359e+00 6.9135038126593482e+00 0 0 0
468 1 8.6039426634371132e+00 1.5151195836001207e+01 1.1963057595461434e+01 0 0 0
202 1 1.3415471100039280e+00 4.8904152826750167e+00 8.0790943565671078e+00 0 0 0
302 1 4.9468862043328699e+00 4.8868107112728518e+00 9.0974980404189019e+00 0 0 0
331 1 6.4743870999791264e+00 6.9191296295007616e+00 8.4265050650415567e+00 0 0 0
210 1 8.2520400234905704e+00 4.8500550362869657e+00 8.0384477379381032e+00 0 0 0
235 1 9.6386326882176903e+00 6.6323833778115375e+00 7.0836946723112399e+00 0 0 0
339 1 1.3481565080492437e+01 6.6558830422888624e+00 8.3563751383389295e+00 0 0 0
218 1 1.5258963882272480e+01 4.8838521797797103e+00 7.9352009524715816e+00 0 0 0
318 1 1.8823736841984690e+01 4.9337657983553482e+00 9.2322377383541152e+00 0 0 0
347 1 2.0477726551934094e+01 6.5533872154886899e+00 8.4829551493305004e+00 0 0 0
224 1 2.1935106888129177e+01 4.8939015443366243e+00 8.2652881720632845e+00 0 0 0
327 1 1.7721972646613651e+00 8.6540366558001569e+00 9.3938559493386222e+00 0 0 0
231 1 4.4572398075172535e+00 8.0689033085777115e+00 7.8327693723411338e+00 0 0 0
335 1 8.3788565743589416e+00 8.1428573512264624e+00 9.3426262494636383e+00 0 0 0
239 1 1.1518429623968744e+01 8.2621170518078806e+00 7.8591992422379313e+00 0 0 0
343 1 1.5076235303861511e+01 8.1357585622314392e+00 9.4663229265373072e+00 0 0 0
247 1 1.8808623673831232e+01 8.2203918180568838e+00 7.4049540994528842e+00 0 0 0
349 1 2.2102068843608862e+01 8.2934600498661499e+00 9.4426189894121553e+00 0 0 0
230 1 1.5685014492578739e+00 1.2097250119712072e+01 7.8140297495965143e+00 0 0 0
326 1 3.1267284346578275e+00 1.0118171301420952e+01 8.1283386117298146e+00 0 0 0
234 1 6.6956287872995466e+00 9.8999436709385940e+00 7.2174320959228142e+00 0 0 0
334 1 9.7496935938501466e+00 1.0070570054378342e+01 8.6777456776419211e+00 0 0 0
338 1 1.1775378734385280e+01 1.1387499541779421e+01 9.1529228228183683e+00 0 0 0
246 1 1.5169363770982381e+01 1.1630489228754573e+01 7.7304454712876103e+00 0 0 0
342 1 1.6955350814426488e+01 9.8895381170342631e+00 8.6089162938333725e+00 0 0 0
252 1 2.2137157139417120e+01 1.1868394700407014e+01 8.0574284875099629e+00 0 0 0
255 1 3.2485826448248978e+00 1.3398460575694793e+01 6.8200575046219862e+00 0 0 0
330 1 4.6988969490648449e+00 1.1879406703726685e+01 9.2943007942249434e+00 0 0 0
359 1 6.3690717785168953e+00 1.3543220163112235e+01 8.5244769732865358e+00 0 0 0
238 1 8.1437785844509545e+00 1.2046531829223055e+01 7.6984700030563431e+00 0 0 0
263 1 1.0103685081430106e+01 1.3519006747356466e+01 6.9078614933266183e+00 0 0 0
367 1 1.3603752154305685e+01 1.3689548914159403e+01 8.6351367189769928e+00 0 0 0
346 1 1.8338371353119211e+01 1.1772570427348947e+01 9.3265435597305686e+00 0 0 0
375 1 2.0041707363869754e+01 1.3182028789094330e+01 8.5467582082001687e+00 0 0 0
1773 1 1.3496543700746281e+01 2.3318926490383173e+01 4.1617846709357655e+00 0 0 0
355 1 1.4005199011082601e+00 1.5014639570282448e+01 9.3817267592371500e+00 0 0 0
259 1 4.4777103865845636e+00 1.5111394474257299e+01 7.8893202424371767e+00 0 0 0
363 1 8.0697217413239013e+00 1.5118915118339414e+01 9.3352694435361059e+00 0 0 0
267 1 1.1835784118556496e+01 1.4931447489947614e+01 8.0810306757337695e+00 0 0 0
371 1 1.5020327602112504e+01 1.5434632198556923e+01 9.4190850782500561e+00 0 0 0
275 1 1.8645984609426652e+01 1.5356216194667889e+01 7.6806725143979442e+00 0 0 0
377 1 2.1742700457492038e+01 1.5090773842125946e+01 9.1977981541182583e+00 0 0 0
258 1 1.1679623676427662e+00 1.8356019684922607e+01 8.0042126257489556e+00 0 0 0
354 1 3.1859978159250266e+00 1.7000212724244111e+01 8.7493419413683693e+00 0 0 0
358 1 5.0144636931009217e+00 1.9006758691393223e+01 9.3521572721777098e+00 0 0 0
362 1 1.0136469616322159e+01 1.7172150326063793e+01 8.6975434847847026e+00 0 0 0
366 1 1.2030098884944177e+01 1.8740767103729439e+01 9.1920486729417483e+00 0 0 0
274 1 1.5362686224171394e+01 1.8670509088400809e+01 7.9492611516192708e+00 0 0 0
370 1 1.6645625387566767e+01 1.6672094530790243e+01 8.1677806046571497e+00 0 0 0
374 1 1.8702030098511834e+01 1.8411274678889573e+01 9.1568637501136951e+00 0 0 0
280 1 2.2067201492537247e+01 1.8239163961508485e+01 7.9691304677155390e+00 0 0 0
109 1 1.0224426149031581e+01 -1.2418734860021721e-01 4.1892102841907546e+00 0 0 0
383 1 6.6393616837479090e+00 2.0560367935735243e+01 8.5106010587908933e+00 0 0 0
266 1 8.0890769382088035e+00 1.8421429059087956e+01 7.9471702177622037e+00 0 0 0
387 1 1.3515297480167991e+01 2.0559692718712022e+01 8.1776596367780119e+00 0 0 0
391 1 2.0407926475540634e+01 2.0206859764513631e+01 8.4320801383146176e+00 0 0 0
381 1 1.6433709977005313e+00 2.1855256032120838e+01 9.0628880774554368e+00 0 0 0
417 1 2.0082175869243034e+01 1.9928804829034682e+01 1.1242646953072025e+01 0 0 0
284 1 4.5802955887567389e+00 2.1853037570244496e+01 7.6200056995768479e+00 0 0 0
385 1 8.4084067323384826e+00 2.1914676333561182e+01 9.5903621673021391e+00 0 0 0
386 1 1.1737958538929055e+01 2.1693718868718637e+01 1.0814064928982789e+01 0 0 0
288 1 1.1518116480240314e+01 2.1771174944879466e+01 7.7709424847001172e+00 0 0 0
389 1 1.4997233883723855e+01 2.2128441946167744e+01 9.3298840519054043e+00 0 0 0
292 1 1.8731926077811490e+01 2.1978363329925344e+01 7.5716538124521966e+00 0 0 0
1864 1 3.1901168040625678e+00 2.3611873936538050e+01 5.4366545283435181e+00 0 0 0
392 1 2.1816476560975655e+01 2.1834517507056038e+01 9.6526375856123217e+00 0 0 0
382 1 4.8640451623265308e+00 2.1892688157571964e+01 1.1188991927514532e+01 0 0 0
415 1 6.5234387731386905e+00 2.0060372597686527e+01 1.1514404254282011e+01 0 0 0
301 1 4.9221575736999670e+00 1.3203130459005286e+00 1.0812090347168342e+01 0 0 0
3683 1 2.3649237877756729e+01 1.3468939393502298e+01 9.9838572417139613e+00 0 0 0
309 1 1.1638294206722806e+01 1.4879032728287858e+00 1.0573290701674631e+01 0 0 0
1965 1 6.1383697120627856e+00 2.3464549697765509e+01 9.9719275140279091e+00 0 0 0
437 1 2.2210211431308363e+01 1.6085818956512759e+00 1.1912713483841346e+01 0 0 0
317 1 1.8516985849559010e+01 1.1006656756792625e+00 1.0730405710721866e+01 0 0 0
1969 1 1.3001373212111986e+01 2.3572130913036752e+01 9.8870859749398132e+00 0 0 0
380 1 3.2214765903188409e+00 2.0410799995818699e+01 1.0095541755750759e+01 0 0 0
3 1 3.0222154190410229e+00 -2.4039532798116275e-01 1.3215459835321037e+00 0 0 0
394 1 3.5186965574414475e+00 3.1208126217620555e+00 1.1410742126282139e+01 0 0 0
304 1 6.5552476887825097e+00 3.2000699117497597e+00 1.0063416159745124e+01 0 0 0
396 1 1.0294550224697476e+01 3.4363315961794298e+00 1.1475309338109852e+01 0 0 0
312 1 1.3232015929078146e+01 3.3349800399633183e+00 1.0220198420341093e+01 0 0 0
398 1 1.6627368709377453e+01 3.4595889221821547e+00 1.1153960948176410e+01 0 0 0
320 1 2.0036420241426132e+01 3.0281488430394603e+00 1.0013875167730630e+01 0 0 0
300 1 1.4523016475873969e+00 4.8978526923857251e+00 1.0956175429035698e+01 0 0 0
101 1 3.1798869343798577e+00 3.5828406522376566e-03 4.4582754545284189e+00 0 0 0
325 1 3.2009060074862505e+00 6.4757975161166526e+00 1.0121500115949811e+01 0 0 0
395 1 6.8732404539987693e+00 -1.6155463494897704e-01 1.1483768234593192e+01 0 0 0
402 1 6.2694712076062205e+00 6.8855960932067077e+00 1.1319713143945338e+01 0 0 0
308 1 7.8158708297064834e+00 5.1307850613302453e+00 1.0666403362003656e+01 0 0 0
333 1 1.0144171603900817e+01 6.3049226223091548e+00 1.0054198038830059e+01 0 0 0
404 1 1.2982483005041090e+01 6.5470216338168052e+00 1.1233683079194181e+01 0 0 0
316 1 1.5111154195995431e+01 5.1677437881122827e+00 1.0618938363708969e+01 0 0 0
341 1 1.7087119634098048e+01 6.5188688642963326e+00 9.8369244035256198e+00 0 0 0
406 1 2.0078274716726643e+01 6.5966724711418054e+00 1.1526522411955531e+01 0 0 0
322 1 2.1924316513125259e+01 4.8944217740412181e+00 1.0711787537620712e+01 0 0 0
329 1 4.8686874568727578e+00 8.7958544997283461e+00 1.0360762437008976e+01 0 0 0
337 1 1.1740708909472096e+01 8.5797034614423087e+00 1.0400002084945099e+01 0 0 0
488 1 1.4699739539615043e+01 2.1813930671334163e+01 1.2029763577717466e+01 0 0 0
345 1 1.8562731574250133e+01 8.3913538019063516e+00 1.0358839365262266e+01 0 0 0
281 1 -1.7494998908573925e-01 2.0291623902231329e+01 5.7132052085871941e+00 0 0 0
155 1 -1.0766039441017061e-02 1.3377307887653295e+01 3.2251797491645227e+00 0 0 0
401 1 3.1757878221057805e+00 1.0010498665745482e+01 1.1446673709580708e+01 0 0 0